1 1 0.0 0.271817068071 0.00058251835105
1 2 0.0 0.481246731893 0.00700063586592
1 3 0.0 0.584346082977 0.114761050875
1 4 0.0 1.21009703049 0.432971056183
1 5 0.0 0.782354699741 0.381926075884
-0.00743501956094 0.00471670193396