ITEM: TIMESTEP
0
ITEM: NUMBER OF ATOMS
172
ITEM: BOX BOUNDS pp pp pp
0.0000000000000000e+00 5.0000000000000000e+01
0.0000000000000000e+00 5.0000000000000000e+01
0.0000000000000000e+00 5.0000000000000000e+01
ITEM: ATOMS id type x y z element fx fy fz 
1 1 15 15 15 C 0.0625324 0.0625324 0.0625324 
5 1 20 15 15 C 0.000854828 0.0907994 0.0907994 
9 1 25 15 15 C -0.000854828 0.0907994 0.0907994 
13 1 30 15 15 C -0.0625324 0.0625324 0.0625324 
15 1 15 20 15 C 0.0907994 0.000854828 0.0907994 
2 1 17.5 17.5 15 C 0.0172573 0.0172573 0.117407 
19 1 20 20 15 C 0.00128224 0.00128224 0.123506 
6 1 22.5 17.5 15 C -1.76183e-18 0.0180868 0.12053 
10 1 27.5 17.5 15 C -0.0172573 0.0172573 0.117407 
23 1 25 20 15 C -0.00128224 0.00128224 0.123506 
27 1 30 20 15 C -0.0907994 0.000854828 0.0907994 
29 1 15 25 15 C 0.0907994 -0.000854828 0.0907994 
16 1 17.5 22.5 15 C 0.0180868 8.13152e-18 0.12053 
30 1 17.5 27.5 15 C 0.0172573 -0.0172573 0.117407 
33 1 20 25 15 C 0.00128224 -0.00128224 0.123506 
20 1 22.5 22.5 15 C -2.49366e-18 5.42101e-19 0.12379 
24 1 27.5 22.5 15 C -0.0180868 1.84314e-18 0.12053 
34 1 22.5 27.5 15 C -2.1684e-18 -0.0180868 0.12053 
37 1 25 25 15 C -0.00128224 -0.00128224 0.123506 
38 1 27.5 27.5 15 C -0.0172573 -0.0172573 0.117407 
41 1 30 25 15 C -0.0907994 -0.000854828 0.0907994 
43 1 15 30 15 C 0.0625324 -0.0625324 0.0625324 
45 1 20 30 15 C 0.000854828 -0.0907994 0.0907994 
47 1 25 30 15 C -0.000854828 -0.0907994 0.0907994 
49 1 30 30 15 C -0.0625324 -0.0625324 0.0625324 
50 1 15 15 20 C 0.0907994 0.0907994 0.000854828 
3 1 17.5 15 17.5 C 0.0172573 0.117407 0.0172573 
54 1 20 15 20 C 0.00128224 0.123506 0.00128224 
7 1 22.5 15 17.5 C -1.76183e-18 0.12053 0.0180868 
11 1 27.5 15 17.5 C -0.0172573 0.117407 0.0172573 
58 1 25 15 20 C -0.00128224 0.123506 0.00128224 
62 1 30 15 20 C -0.0907994 0.0907994 0.000854828 
4 1 15 17.5 17.5 C 0.117407 0.0172573 0.0172573 
64 1 15 20 20 C 0.123506 0.00128224 0.00128224 
8 1 20 17.5 17.5 C 0.00170966 0.0228155 0.0228155 
17 1 17.5 20 17.5 C 0.0228155 0.00170966 0.0228155 
51 1 17.5 17.5 20 C 0.0228155 0.0228155 0.00170966 
68 1 20 20 20 C 0.00170966 0.00170966 0.00170966 
12 1 25 17.5 17.5 C -0.00170966 0.0228155 0.0228155 
21 1 22.5 20 17.5 C -8.70072e-18 0.00170966 0.0237827 
25 1 27.5 20 17.5 C -0.0228155 0.00170966 0.0228155 
55 1 22.5 17.5 20 C -5.66496e-18 0.0237827 0.00170966 
59 1 27.5 17.5 20 C -0.0228155 0.0228155 0.00170966 
72 1 25 20 20 C -0.00170966 0.00170966 0.00170966 
14 1 30 17.5 17.5 C -0.117407 0.0172573 0.0172573 
76 1 30 20 20 C -0.123506 0.00128224 0.00128224 
18 1 15 22.5 17.5 C 0.12053 8.42967e-18 0.0180868 
32 1 15 27.5 17.5 C 0.117407 -0.0172573 0.0172573 
78 1 15 25 20 C 0.123506 -0.00128224 0.00128224 
22 1 20 22.5 17.5 C 0.00170966 -2.41235e-18 0.0237827 
31 1 17.5 25 17.5 C 0.0228155 -0.00170966 0.0228155 
36 1 20 27.5 17.5 C 0.00170966 -0.0228155 0.0228155 
65 1 17.5 22.5 20 C 0.0237827 -2.30935e-17 0.00170966 
79 1 17.5 27.5 20 C 0.0228155 -0.0228155 0.00170966 
82 1 20 25 20 C 0.00170966 -0.00170966 0.00170966 
26 1 25 22.5 17.5 C -0.00170966 -5.77338e-18 0.0237827 
35 1 22.5 25 17.5 C -1.07336e-17 -0.00170966 0.0237827 
39 1 27.5 25 17.5 C -0.0228155 -0.00170966 0.0228155 
40 1 25 27.5 17.5 C -0.00170966 -0.0228155 0.0228155 
69 1 22.5 22.5 20 C 7.58942e-19 3.79471e-18 0.00170966 
73 1 27.5 22.5 20 C -0.0237827 2.61293e-17 0.00170966 
83 1 22.5 27.5 20 C -2.60209e-18 -0.0237827 0.00170966 
86 1 25 25 20 C -0.00170966 -0.00170966 0.00170966 
87 1 27.5 27.5 20 C -0.0228155 -0.0228155 0.00170966 
28 1 30 22.5 17.5 C -0.12053 2.92735e-18 0.0180868 
42 1 30 27.5 17.5 C -0.117407 -0.0172573 0.0172573 
90 1 30 25 20 C -0.123506 -0.00128224 0.00128224 
92 1 15 30 20 C 0.0907994 -0.0907994 0.000854828 
44 1 17.5 30 17.5 C 0.0172573 -0.117407 0.0172573 
94 1 20 30 20 C 0.00128224 -0.123506 0.00128224 
46 1 22.5 30 17.5 C -2.1684e-19 -0.12053 0.0180868 
48 1 27.5 30 17.5 C -0.0172573 -0.117407 0.0172573 
96 1 25 30 20 C -0.00128224 -0.123506 0.00128224 
98 1 30 30 20 C -0.0907994 -0.0907994 0.000854828 
99 1 15 15 25 C 0.0907994 0.0907994 -0.000854828 
52 1 17.5 15 22.5 C 0.0180868 0.12053 -1.7022e-17 
101 1 17.5 15 27.5 C 0.0172573 0.117407 -0.0172573 
103 1 20 15 25 C 0.00128224 0.123506 -0.00128224 
56 1 22.5 15 22.5 C -2.27682e-18 0.12379 3.36103e-18 
60 1 27.5 15 22.5 C -0.0180868 0.12053 1.19262e-18 
105 1 22.5 15 27.5 C -3.90313e-18 0.12053 -0.0180868 
107 1 25 15 25 C -0.00128224 0.123506 -0.00128224 
109 1 27.5 15 27.5 C -0.0172573 0.117407 -0.0172573 
111 1 30 15 25 C -0.0907994 0.0907994 -0.000854828 
53 1 15 17.5 22.5 C 0.12053 0.0180868 -1.81062e-17 
102 1 15 17.5 27.5 C 0.117407 0.0172573 -0.0172573 
113 1 15 20 25 C 0.123506 0.00128224 -0.00128224 
57 1 20 17.5 22.5 C 0.00170966 0.0237827 -1.57209e-17 
66 1 17.5 20 22.5 C 0.0237827 0.00170966 -2.04914e-17 
100 1 17.5 17.5 25 C 0.0228155 0.0228155 -0.00170966 
106 1 20 17.5 27.5 C 0.00170966 0.0228155 -0.0228155 
115 1 17.5 20 27.5 C 0.0228155 0.00170966 -0.0228155 
117 1 20 20 25 C 0.00170966 0.00170966 -0.00170966 
61 1 25 17.5 22.5 C -0.00170966 0.0237827 -1.18178e-17 
70 1 22.5 20 22.5 C 1.19262e-18 0.00170966 -7.04731e-18 
74 1 27.5 20 22.5 C -0.0237827 0.00170966 4.22839e-18 
104 1 22.5 17.5 25 C -7.37257e-18 0.0237827 -0.00170966 
108 1 27.5 17.5 25 C -0.0228155 0.0228155 -0.00170966 
110 1 25 17.5 27.5 C -0.00170966 0.0228155 -0.0228155 
119 1 22.5 20 27.5 C -3.90313e-18 0.00170966 -0.0237827 
121 1 25 20 25 C -0.00170966 0.00170966 -0.00170966 
123 1 27.5 20 27.5 C -0.0228155 0.00170966 -0.0228155 
63 1 30 17.5 22.5 C -0.12053 0.0180868 -3.14419e-18 
112 1 30 17.5 27.5 C -0.117407 0.0172573 -0.0172573 
125 1 30 20 25 C -0.123506 0.00128224 -0.00128224 
67 1 15 22.5 22.5 C 0.12379 1.11673e-17 -2.71051e-18 
81 1 15 27.5 22.5 C 0.12053 -0.0180868 -4.87891e-18 
116 1 15 22.5 27.5 C 0.12053 6.17995e-18 -0.0180868 
127 1 15 25 25 C 0.123506 -0.00128224 -0.00128224 
130 1 15 27.5 27.5 C 0.117407 -0.0172573 -0.0172573 
71 1 20 22.5 22.5 C 0.00170966 5.42101e-19 3.25261e-19 
80 1 17.5 25 22.5 C 0.0237827 -0.00170966 -3.82723e-17 
85 1 20 27.5 22.5 C 0.00170966 -0.0237827 -5.31259e-18 
114 1 17.5 22.5 25 C 0.0237827 -4.36391e-18 -0.00170966 
120 1 20 22.5 27.5 C 0.00170966 -4.22839e-18 -0.0237827 
128 1 17.5 27.5 25 C 0.0228155 -0.0228155 -0.00170966 
129 1 17.5 25 27.5 C 0.0228155 -0.00170966 -0.0228155 
131 1 20 25 25 C 0.00170966 -0.00170966 -0.00170966 
134 1 20 27.5 27.5 C 0.00170966 -0.0228155 -0.0228155 
75 1 25 22.5 22.5 C -0.00170966 -1.46367e-17 -4.87891e-18 
84 1 22.5 25 22.5 C 8.21283e-18 -0.00170966 -1.91904e-17 
88 1 27.5 25 22.5 C -0.0237827 -0.00170966 2.76472e-17 
89 1 25 27.5 22.5 C -0.00170966 -0.0237827 8.5652e-18 
118 1 22.5 22.5 25 C 8.21283e-18 1.27394e-18 -0.00170966 
122 1 27.5 22.5 25 C -0.0237827 9.75782e-18 -0.00170966 
124 1 25 22.5 27.5 C -0.00170966 1.65883e-17 -0.0237827 
132 1 22.5 27.5 25 C -6.50521e-18 -0.0237827 -0.00170966 
133 1 22.5 25 27.5 C 1.43115e-17 -0.00170966 -0.0237827 
135 1 25 25 25 C -0.00170966 -0.00170966 -0.00170966 
136 1 27.5 27.5 25 C -0.0228155 -0.0228155 -0.00170966 
137 1 27.5 25 27.5 C -0.0228155 -0.00170966 -0.0228155 
138 1 25 27.5 27.5 C -0.00170966 -0.0228155 -0.0228155 
77 1 30 22.5 22.5 C -0.12379 -5.20417e-18 2.20093e-17 
91 1 30 27.5 22.5 C -0.12053 -0.0180868 1.98409e-17 
126 1 30 22.5 27.5 C -0.12053 -1.4203e-17 -0.0180868 
139 1 30 25 25 C -0.123506 -0.00128224 -0.00128224 
140 1 30 27.5 27.5 C -0.117407 -0.0172573 -0.0172573 
141 1 15 30 25 C 0.0907994 -0.0907994 -0.000854828 
93 1 17.5 30 22.5 C 0.0180868 -0.12053 1.50704e-17 
142 1 17.5 30 27.5 C 0.0172573 -0.117407 -0.0172573 
143 1 20 30 25 C 0.00128224 -0.123506 -0.00128224 
95 1 22.5 30 22.5 C 5.52943e-18 -0.12379 1.19262e-18 
97 1 27.5 30 22.5 C -0.0180868 -0.12053 1.98409e-17 
144 1 22.5 30 27.5 C -3.79471e-18 -0.12053 -0.0180868 
145 1 25 30 25 C -0.00128224 -0.123506 -0.00128224 
146 1 27.5 30 27.5 C -0.0172573 -0.117407 -0.0172573 
147 1 30 30 25 C -0.0907994 -0.0907994 -0.000854828 
148 1 15 15 30 C 0.0625324 0.0625324 -0.0625324 
150 1 20 15 30 C 0.000854828 0.0907994 -0.0907994 
152 1 25 15 30 C -0.000854828 0.0907994 -0.0907994 
154 1 30 15 30 C -0.0625324 0.0625324 -0.0625324 
155 1 15 20 30 C 0.0907994 0.000854828 -0.0907994 
149 1 17.5 17.5 30 C 0.0172573 0.0172573 -0.117407 
157 1 20 20 30 C 0.00128224 0.00128224 -0.123506 
151 1 22.5 17.5 30 C -3.25261e-19 0.0180868 -0.12053 
153 1 27.5 17.5 30 C -0.0172573 0.0172573 -0.117407 
159 1 25 20 30 C -0.00128224 0.00128224 -0.123506 
161 1 30 20 30 C -0.0907994 0.000854828 -0.0907994 
162 1 15 25 30 C 0.0907994 -0.000854828 -0.0907994 
156 1 17.5 22.5 30 C 0.0180868 1.20346e-17 -0.12053 
163 1 17.5 27.5 30 C 0.0172573 -0.0172573 -0.117407 
164 1 20 25 30 C 0.00128224 -0.00128224 -0.123506 
158 1 22.5 22.5 30 C 5.52943e-18 -1.84314e-18 -0.12379 
160 1 27.5 22.5 30 C -0.0180868 2.81893e-18 -0.12053 
165 1 22.5 27.5 30 C 6.61363e-18 -0.0180868 -0.12053 
166 1 25 25 30 C -0.00128224 -0.00128224 -0.123506 
167 1 27.5 27.5 30 C -0.0172573 -0.0172573 -0.117407 
168 1 30 25 30 C -0.0907994 -0.000854828 -0.0907994 
169 1 15 30 30 C 0.0625324 -0.0625324 -0.0625324 
170 1 20 30 30 C 0.000854828 -0.0907994 -0.0907994 
171 1 25 30 30 C -0.000854828 -0.0907994 -0.0907994 
172 1 30 30 30 C -0.0625324 -0.0625324 -0.0625324 
ITEM: TIMESTEP
100
ITEM: NUMBER OF ATOMS
172
ITEM: BOX BOUNDS pp pp pp
0.0000000000000000e+00 5.0000000000000000e+01
0.0000000000000000e+00 5.0000000000000000e+01
0.0000000000000000e+00 5.0000000000000000e+01
ITEM: ATOMS id type x y z element fx fy fz 
1 1 15.5794 15.8829 15.1749 C 0.00584289 -0.0427879 -0.0023428 
5 1 20.4952 15.6003 15.3793 C -0.122841 -0.024741 0.0185651 
9 1 24.6424 15.5594 15.6641 C -0.0558437 -0.0937066 -0.106925 
13 1 29.2129 15.397 15.8368 C 0.0119916 0.0346357 -0.00918276 
15 1 15.4524 20.3982 15.5942 C -0.0163219 -0.0762158 0.0444623 
2 1 18.0182 18.0376 15.3048 C 0.0584331 0.0330646 0.0879186 
19 1 20.4078 20.3694 15.6251 C -0.320954 -0.0706017 -0.155172 
6 1 22.4808 18.0725 15.5579 C 0.148528 -0.156195 -0.0641222 
10 1 26.8404 17.8109 15.5769 C 0.199453 0.119064 0.0104282 
23 1 24.6967 20.2879 15.5857 C 0.0483858 -0.101253 -0.0796173 
27 1 29.1735 20.4773 15.5697 C 0.0600932 -0.177481 -0.057711 
29 1 15.3529 24.7337 15.7176 C -0.00312861 -0.0683216 -0.108474 
16 1 17.841 22.5051 15.5674 C 0.0458734 0.0319203 0.0172813 
30 1 17.8765 26.8214 15.5655 C -0.0641482 0.0961354 0.050433 
33 1 20.2236 24.6686 15.6256 C -0.0780423 -0.0467375 -0.000804366 
20 1 22.5551 22.5555 15.7322 C -0.00703423 0.0818068 -0.204053 
24 1 26.8366 22.5835 15.6004 C 0.1013 0.0465173 -0.0895905 
34 1 22.4168 26.8952 15.6092 C 0.0343916 0.180672 -0.0369993 
37 1 24.669 24.8295 15.7459 C 0.154635 0.0568715 -0.084729 
38 1 27.2843 26.9333 15.5825 C 0.0152486 -0.0154138 0.0270113 
41 1 29.5356 24.4239 15.9093 C 0.0497256 0.187148 -0.18915 
43 1 15.2894 29.2887 15.6297 C 0.0696478 -0.0341285 0.0256761 
45 1 20.15 29.1799 15.5406 C 0.0270266 0.0411787 -0.0433972 
47 1 24.8742 29.0721 15.4125 C -0.0870637 0.0233441 -0.0271859 
49 1 29.5698 29.4396 15.4056 C -0.0522624 -0.0477519 0.0668152 
50 1 15.7817 15.5357 20.2926 C -0.111343 -0.017019 -0.0560676 
3 1 17.9259 15.5346 17.7994 C 0.100361 0.0590783 -0.0441422 
54 1 20.3507 15.6649 20.198 C -0.246032 -0.0644046 0.0349131 
7 1 22.4661 15.5375 17.9607 C 0.0147107 -0.00503772 -0.154888 
11 1 26.8496 15.4259 18.0454 C 0.00892634 0.0702295 0.111095 
58 1 24.4519 15.543 20.3648 C 0.426507 -0.0677822 -0.0676457 
62 1 29.346 15.6274 20.3423 C 0.0690954 -0.0205889 -0.100673 
4 1 15.5922 17.8311 17.7691 C 0.0340155 0.109055 0.0981329 
64 1 15.5026 20.3904 20.2787 C 0.0252463 -0.341202 -0.0794807 
8 1 20.3125 17.9616 17.8566 C -0.162503 -0.0590325 0.0616092 
17 1 17.9959 20.1939 17.8577 C -0.134364 0.00389378 0.0386289 
51 1 17.9283 17.9519 20.2265 C 0.008679 0.0620053 -0.137809 
68 1 20.3214 20.2865 20.2602 C -0.233301 -0.287028 -0.368699 
12 1 24.7077 17.9441 17.9495 C 0.00842836 -0.026764 0.113076 
21 1 22.5097 20.2824 18.0386 C 0.0335849 -0.170283 -0.189773 
25 1 26.8708 20.3164 17.9317 C 0.135248 -0.286408 0.0461729 
55 1 22.5049 18.0061 20.2722 C -0.037232 0.00806804 -0.170923 
59 1 27.0609 17.9851 20.3074 C -0.162314 -0.028625 -0.10938 
72 1 24.5915 20.3866 20.3256 C 0.354729 -0.474984 -0.217902 
14 1 29.3515 18.0062 18.0032 C -0.0581382 -0.0189839 -0.107476 
76 1 29.3725 20.2849 20.2762 C 0.045756 -0.301574 0.132222 
18 1 15.4682 22.6168 18.1411 C -0.0493149 -0.211386 -0.303704 
32 1 15.4165 26.9568 17.962 C 0.0741399 0.0655678 0.0997166 
78 1 15.5607 24.7011 20.3592 C -0.0230578 0.151245 0.0606682 
22 1 20.2989 22.4502 17.9975 C -0.323033 0.169885 -0.0369696 
31 1 17.8236 24.6697 18.0228 C 0.195283 0.113528 -0.0379969 
36 1 20.3503 26.9226 17.994 C -0.313664 0.172349 -0.101106 
65 1 18.0421 22.3806 20.2706 C -0.223161 0.286733 -0.257156 
79 1 18.016 27.0646 20.2193 C -0.149382 0.0548201 0.0254754 
82 1 20.1869 24.8041 20.3707 C -0.0780507 -0.254177 -0.485369 
26 1 24.6821 22.4893 18.014 C 0.131828 0.144372 -0.0262617 
35 1 22.4497 24.6455 18.1958 C 0.105788 0.285426 -0.422656 
39 1 27.0202 24.745 17.9426 C 0.0671109 0.0383672 0.150296 
40 1 24.7703 27.0559 18.0421 C -0.0650942 0.0532797 -0.101595 
69 1 22.4316 22.5273 20.3586 C 0.0257282 -0.13878 -0.598078 
73 1 26.9761 22.4671 20.272 C -0.0149563 0.0857843 -0.105837 
83 1 22.4703 26.9938 20.2716 C 0.219835 0.267355 -0.143184 
86 1 24.7454 24.6722 20.2975 C 0.246272 0.254043 -0.226598 
87 1 26.9509 27.0803 20.2795 C 0.200472 -0.00581172 -0.0301488 
28 1 29.2799 22.3409 18.1285 C 0.112153 0.224871 -0.13447 
42 1 29.547 27.0587 18.0522 C -0.0855866 0.0461548 -0.00631073 
90 1 29.3152 24.7343 20.3397 C 0.048849 0.137191 -0.212725 
92 1 15.7312 29.3461 20.208 C -0.0485388 0.0572474 0.0514332 
44 1 17.9611 29.3682 17.8746 C -0.0141474 -0.0593035 -0.0126946 
94 1 20.3332 29.4364 20.2496 C -0.121495 0.0107338 -0.148043 
46 1 22.5218 29.4201 17.8612 C 0.0261852 -0.017457 -0.0288734 
48 1 26.9965 29.5829 17.7853 C 0.0631919 -0.0959662 0.0784195 
96 1 24.7348 29.5424 20.2966 C -0.0184923 -0.0272601 -0.196332 
98 1 29.22 29.5832 20.3443 C -0.00701796 -0.0194706 -0.065237 
99 1 15.6697 15.6822 24.6243 C -0.00692955 -0.0561573 0.131703 
52 1 18.0706 15.6358 22.4838 C 0.0642838 -0.0531948 0.0424921 
101 1 18.0822 15.7837 27.0084 C -0.119002 -0.0691721 -0.0456162 
103 1 20.4061 15.664 24.7447 C -0.463041 -0.0863167 0.25852 
56 1 22.4039 15.8346 22.5895 C -0.0104394 -0.242227 -0.397469 
60 1 27.1124 15.6389 22.5866 C -0.0744238 -0.0551449 -0.0626436 
105 1 22.454 15.6348 27.1023 C 0.259169 -0.0284372 -0.0234109 
107 1 24.6483 15.6482 24.5788 C 0.20073 -0.0754471 0.334921 
109 1 27.0297 15.5627 26.9148 C 0.0640185 0.0246732 0.00159716 
111 1 29.5821 15.8749 24.7622 C 0.0251548 -0.0837669 0.0944164 
53 1 15.5688 18.0145 22.5033 C 0.0107491 -0.0972642 -0.243618 
102 1 15.5456 17.7976 27.2364 C 0.0573154 0.016645 -0.103511 
113 1 15.6377 20.1775 24.6549 C -0.0310179 -0.0463718 0.324301 
57 1 20.2368 18.109 22.4386 C -0.00565089 -0.372283 -0.00320674 
66 1 18.0926 20.2949 22.4447 C -0.376417 -0.190453 0.0852324 
100 1 18.0811 18.0513 24.619 C -0.156149 -0.126215 0.316237 
106 1 20.343 18.0071 27.0758 C -0.118669 0.142936 0.0268082 
115 1 17.947 20.3207 26.976 C -0.0221341 -0.195905 -0.0406391 
117 1 20.3225 20.3498 24.7336 C -0.354627 -0.208511 0.239653 
61 1 24.6943 18.0748 22.5073 C 0.16667 -0.150387 -0.0882918 
70 1 22.3766 20.3171 22.5259 C 0.527624 -0.324453 -0.0265541 
74 1 26.9213 20.3251 22.4931 C 0.241623 -0.106089 -0.0495585 
104 1 22.4534 18.0907 24.6982 C 0.129777 -0.136346 0.243998 
108 1 27.1243 18.0277 24.6758 C -0.0646832 0.00655313 0.203036 
110 1 24.8369 17.9142 26.9506 C -0.0206669 0.115872 0.0457469 
119 1 22.5998 20.2462 26.9561 C -0.103421 -0.214567 0.247614 
121 1 24.7609 20.3071 24.681 C -0.0324676 -0.193122 0.253096 
123 1 27.1183 20.291 27.0748 C -0.0563061 -0.115752 0.0195928 
63 1 29.4302 18.0883 22.5182 C 0.0870695 -0.0688221 -0.129473 
112 1 29.5656 18.0453 27.3187 C -0.0999793 -0.0700477 -0.13165 
125 1 29.3953 20.3895 24.6374 C 0.0440025 -0.233167 0.175574 
67 1 15.6577 22.4308 22.5829 C -0.168169 0.10319 -0.167727 
81 1 15.4581 27.0203 22.4936 C 0.0811853 0.117735 -0.114699 
116 1 15.5435 22.5976 26.7475 C -0.0185218 -0.0968047 0.235375 
127 1 15.6918 24.7756 24.6022 C -0.0984384 0.213951 0.169772 
130 1 15.5232 27.0914 27.0539 C 0.110816 -0.0523384 0.000792128 
71 1 20.329 22.4715 22.4577 C -0.467553 0.267417 0.158431 
80 1 17.9768 24.6987 22.4499 C -0.112533 0.246182 0.0152556 
85 1 20.3265 26.9678 22.4833 C -0.259327 0.297437 0.192225 
114 1 18.0223 22.5228 24.5977 C -0.0373256 -0.187697 0.335641 
120 1 20.3737 22.4031 27.0406 C -0.261014 0.131718 -0.0773961 
128 1 18.0837 27.0352 24.7853 C -0.254405 -0.0022335 -0.182719 
129 1 18.0896 24.6451 26.8798 C -0.137827 0.159076 0.19555 
131 1 20.3309 24.6347 24.6346 C -0.120801 0.336237 0.189296 
134 1 20.2652 27.0444 26.9149 C 0.221772 -0.0183926 0.140596 
75 1 24.5967 22.4991 22.4751 C 0.491012 -0.00742886 0.219015 
84 1 22.5151 24.7107 22.3742 C -0.0983406 0.284021 0.441151 
88 1 26.9845 24.6534 22.5562 C 0.0582586 0.291982 -0.118865 
89 1 24.6957 26.977 22.4959 C 0.354863 0.139937 -0.27563 
118 1 22.5175 22.522 24.7384 C 0.0262013 -0.0957867 0.0103048 
122 1 26.9123 22.5121 24.7949 C 0.262187 -0.124833 -0.0966887 
124 1 24.6509 22.4833 27.0258 C 0.40099 0.116818 0.0788292 
132 1 22.618 26.9556 24.6094 C -0.406923 0.123527 0.552774 
133 1 22.4999 24.6918 26.9689 C 0.0274918 0.331607 0.0567411 
135 1 24.6999 24.6948 24.6594 C 0.148415 0.146881 0.287581 
136 1 26.9711 27.0497 24.7755 C 0.107687 -0.0869087 -0.0191379 
137 1 27.004 24.6195 27.0088 C 0.0758446 0.222437 0.170402 
138 1 24.8367 26.9461 27.1271 C -0.102093 0.082618 0.023912 
77 1 29.2828 22.5063 22.4399 C 0.16245 -0.0785712 0.012528 
91 1 29.4552 27.1007 22.4774 C -0.0666556 0.0272016 0.00743437 
126 1 29.4368 22.485 26.9047 C 0.0705386 0.148777 0.226939 
139 1 29.4619 24.6857 24.5982 C -0.000469235 0.119888 0.125993 
140 1 29.4133 26.8345 26.9591 C -0.0254048 0.0823636 0.102752 
141 1 15.7353 29.2979 24.6625 C -0.0759652 0.108515 0.0922978 
93 1 18.1369 29.4621 22.5843 C -0.205913 -0.0238743 -0.25203 
142 1 18.0005 29.5469 27.051 C -0.045429 -0.0616662 -0.0137534 
143 1 20.3104 29.3942 24.7037 C 0.15025 0.0559014 0.275649 
95 1 22.496 29.3463 22.4855 C 0.0247651 0.138009 -0.0365559 
97 1 26.8647 29.3659 22.5684 C 0.236078 0.0806103 0.0178508 
144 1 22.5483 29.4059 27.1323 C 0.0873015 -0.0610086 -0.135237 
145 1 24.6454 29.3784 24.7395 C 0.110579 0.0788889 0.222692 
146 1 27.1447 29.3883 27.0886 C -0.0972421 -0.0485946 0.107104 
147 1 29.3687 29.357 24.8118 C 0.0475514 0.0257602 -0.0593986 
148 1 15.809 15.1366 29.4121 C 0.0516681 0.0680642 -0.0342994 
150 1 20.2565 15.6526 29.3354 C -0.0141251 -0.0166794 0.178747 
152 1 24.8461 15.8371 29.4032 C 0.0786354 -0.130095 0.0400601 
154 1 29.1108 15.5164 29.5697 C -0.0349288 0.0367815 -0.0359308 
155 1 15.5012 20.3542 29.1601 C -0.00628452 0.0307737 0.0622682 
149 1 18.0519 18.0789 29.5704 C -0.122912 -0.0503996 -0.077973 
157 1 20.2674 20.3364 29.4094 C 0.0871717 -0.109259 0.068509 
151 1 22.6343 18.0812 29.4983 C -0.189131 -0.0536275 -0.0324987 
153 1 27.095 18.2107 29.74 C 0.0315218 -0.0509119 -0.0946736 
159 1 24.7572 20.3537 29.3573 C 0.101059 -0.0444324 0.0781858 
161 1 29.5329 20.4045 29.4395 C 0.0335902 0.0524753 0.0656935 
162 1 15.6695 24.7747 29.4248 C 0.0201353 0.0124555 -0.0567085 
156 1 17.9727 22.4989 29.2377 C -0.138291 0.0275753 0.132528 
163 1 18.1732 27.0514 29.317 C -0.13034 -0.0647008 -0.000502299 
164 1 20.3233 24.6105 29.3233 C -0.421943 0.154549 0.088345 
158 1 22.526 22.5763 29.3213 C 0.136522 -0.269582 0.250952 
160 1 27.1006 22.5258 29.4776 C -0.0319769 -0.114415 -0.0139946 
165 1 22.414 26.8081 29.3878 C 0.162084 0.315228 0.035147 
166 1 24.8023 24.6922 29.5897 C 0.0469976 0.0778384 -0.0522706 
167 1 27.013 27.0575 29.6775 C -0.00899887 -0.0376408 -0.100336 
168 1 29.267 24.7898 29.5447 C 0.126855 0.0141438 -0.0426163 
169 1 15.6933 29.2754 29.6563 C 0.0388126 -0.0290669 -0.0505442 
170 1 20.3449 29.431 29.2957 C -0.065003 0.0236155 0.155524 
171 1 24.7362 29.2994 29.5375 C -0.0381854 0.0163914 -0.014747 
172 1 29.5463 29.0628 29.638 C 0.00417438 -0.0076691 -0.0675981 
ITEM: TIMESTEP
200
ITEM: NUMBER OF ATOMS
172
ITEM: BOX BOUNDS pp pp pp
0.0000000000000000e+00 5.0000000000000000e+01
0.0000000000000000e+00 5.0000000000000000e+01
0.0000000000000000e+00 5.0000000000000000e+01
ITEM: ATOMS id type x y z element fx fy fz 
1 1 15.0085 15.5581 14.6631 C 0.0659149 0.0717113 0.0760381 
5 1 20.1369 15.5971 15.5136 C 0.167921 -0.120774 -0.10582 
9 1 24.8313 15.4585 15.3785 C -0.0718774 -0.0332438 -0.0622134 
13 1 29.6021 15.0187 14.9731 C -0.0619958 0.0689849 0.0801357 
15 1 15.2959 19.8883 15.3529 C 0.0462721 0.0520529 0.0250136 
2 1 18.0754 17.9735 15.2912 C -0.151858 0.0751243 0.0797775 
19 1 20.2583 20.3272 14.7131 C 0.00793638 0.0275361 0.133263 
6 1 22.5573 17.9577 15.1171 C 0.00401528 -0.0105454 0.126276 
10 1 27.2471 17.5589 15.2406 C 0.0441832 0.154089 0.0114117 
23 1 24.9669 20.3046 15.2315 C 0.0614229 -0.0638451 0.0404634 
27 1 29.7694 20.0109 15.3003 C -0.0525246 0.0435476 -0.025433 
29 1 15.4993 25.1657 15.481 C -0.0904612 -0.162696 -0.0318858 
16 1 17.6668 22.2943 15.5436 C -0.0226202 0.0681397 -0.037503 
30 1 17.8138 27.3011 15.3166 C 0.0163608 0.0273663 0.0574713 
33 1 20.1858 24.6211 15.1124 C -0.111308 0.0931647 0.0793433 
20 1 22.6365 22.5742 14.8807 C 0.0423803 -0.0442776 0.136465 
24 1 27.5254 22.6297 15.1755 C -0.0254872 0.0285543 0.0735766 
34 1 22.311 27.6004 14.858 C -0.0194358 -0.154011 0.0233401 
37 1 24.8027 25.0268 14.8386 C -0.0107989 -0.0383056 0.0870297 
38 1 27.322 27.0697 15.238 C 0.111763 -0.0228222 0.0596255 
41 1 30.0425 25.1513 15.3573 C -0.052449 -0.064623 -0.041698 
43 1 14.7925 29.8988 15.6477 C 0.0849847 -0.073122 0.0755955 
45 1 19.7051 29.9293 15.4231 C 0.123575 -0.0274041 0.0131275 
47 1 25.1633 29.504 14.9906 C -0.0898444 -0.00867264 0.00574282 
49 1 30.0126 30.1283 15.0857 C -0.0691282 -0.0705424 0.0667014 
50 1 15.6067 15.235 19.9331 C -0.0221713 0.00923768 0.146163 
3 1 17.8779 15.576 17.7463 C -0.0522745 0.0167006 -0.129589 
54 1 20.0156 15.2172 20.0529 C 0.0248919 0.117246 0.0393914 
7 1 22.6043 15.3699 17.731 C -0.021545 0.0486929 0.088503 
11 1 27.1255 15.3772 17.6754 C 0.0419214 0.0210961 -0.0224899 
58 1 25.096 15.2917 20.1929 C 0.0146073 0.0594853 -0.0385543 
62 1 29.5491 15.1657 19.773 C -0.00746016 0.0665894 0.10857 
4 1 15.3717 17.6789 17.7287 C 0.0199751 0.00351203 -0.0148306 
64 1 15.1029 19.9565 20.1903 C 0.0986559 0.0491881 0.0278785 
8 1 20.3141 17.8351 17.804 C -0.0243474 0.136602 0.0259455 
17 1 17.6557 20.1129 17.9229 C 0.046628 0.0390433 -0.0363123 
51 1 17.7382 17.8322 20.122 C 0.0732737 -0.125494 0.1042 
68 1 20.2266 20.0904 20.2733 C -0.0424551 0.0147036 -0.0980507 
12 1 24.91 17.8304 17.6929 C 0.0143722 0.0200201 0.00844815 
21 1 22.6958 20.2874 17.6827 C -0.0519866 -0.0204807 -0.0111812 
25 1 27.3458 20.1611 17.5784 C -0.0125948 0.0201324 0.102349 
55 1 22.6191 17.7185 20.0865 C -0.0353222 -0.0133714 0.0839648 
59 1 27.2808 17.737 20.2395 C 0.0427488 -0.0376366 -0.0772123 
72 1 24.9605 20.0329 20.1536 C -0.00332881 0.0874216 -0.0452318 
14 1 29.6438 17.6886 17.5475 C -0.0638538 -0.0421502 0.0931266 
76 1 29.6549 20.0154 20.1564 C -0.0394158 -0.0516711 -0.118262 
18 1 15.0602 22.515 17.7104 C 0.117005 -0.0301472 0.0320828 
32 1 15.3899 27.1384 18.0614 C 0.0290117 0.0860356 -0.00469267 
78 1 14.9529 24.6851 20.289 C 0.133727 0.0246065 -0.0221648 
22 1 20.1597 22.4107 17.6656 C 0.013396 -0.000268097 0.0560695 
31 1 17.7201 24.7656 17.8026 C 0.029569 -0.0100774 0.0466264 
36 1 20.1172 27.0273 17.5618 C 0.0211897 0.133471 0.066252 
65 1 17.7124 22.499 20.2524 C -0.0542666 -0.0159011 -0.0134513 
79 1 17.8966 27.384 20.1134 C 0.0452757 -0.109061 0.033157 
82 1 20.0159 24.8695 20.1719 C 0.0827637 -0.00714797 0.00159942 
26 1 25.1105 22.6832 17.5596 C -0.0782908 -0.0607082 0.000843632 
35 1 22.4883 24.8748 17.5122 C 0.0628944 -0.107345 0.0480199 
39 1 27.5873 24.8042 17.8228 C -0.0660922 -0.0697996 -0.0336113 
40 1 24.8376 27.1308 17.3707 C 0.0171276 -0.0589661 0.14201 
69 1 22.4852 22.5472 20.0974 C 0.00458924 0.0117864 -0.0231276 
73 1 27.4848 22.4649 20.3707 C -0.0581782 -0.050408 -0.11441 
83 1 22.5097 27.2379 19.9796 C 0.0380222 -0.0596677 -0.0197472 
86 1 25.0965 24.7406 20.0404 C -0.162423 0.10326 0.0216902 
87 1 27.2065 27.2541 19.9526 C -0.0274725 0.0220461 0.107181 
28 1 30.0865 22.5964 17.4521 C -0.100525 -0.0525073 0.102935 
42 1 29.813 27.077 17.9118 C 0.00248486 0.0763058 0.0281276 
90 1 30.1508 24.552 20.3659 C -0.128046 0.0842112 -0.0450973 
92 1 15.0929 29.921 20.0268 C 0.0406306 -0.0669913 -0.0109764 
44 1 17.7768 29.7786 18.0161 C -0.037547 -0.0381778 -0.031791 
94 1 20.3722 29.6913 20.2453 C -0.064506 -0.0137794 -0.100183 
46 1 22.6084 29.5007 17.3802 C -0.0675387 0.0377235 0.123794 
48 1 27.1435 29.4697 17.5809 C 0.0889337 0.00603725 -0.00233146 
96 1 24.7932 29.675 19.9416 C 0.000122661 -0.0859459 0.0404053 
98 1 29.7301 29.7622 19.744 C -0.0791978 -0.0167794 0.0619903 
99 1 15.3356 15.0619 25.1296 C -0.0461936 0.0815466 -0.105349 
52 1 17.9094 15.0431 22.7862 C 0.00108098 0.0943661 -0.000291729 
101 1 17.832 14.975 27.0563 C 0.132069 0.0868342 0.0986663 
103 1 20.7239 14.9567 24.9944 C -0.0387665 0.0851863 -0.0102522 
56 1 22.5246 14.8544 22.0097 C -0.0495706 0.10861 0.121889 
60 1 27.5423 15.2387 22.7249 C -0.106037 0.0381385 -0.0674788 
105 1 22.7031 15.3313 27.7575 C 0.0183835 0.0866092 -0.0624015 
107 1 24.4649 15.1184 24.6724 C 0.0410326 0.027494 0.0107814 
109 1 26.7974 15.0076 26.9651 C 0.0787662 0.0956957 -0.0178179 
111 1 29.824 15.0236 25.1553 C -0.0726967 0.0903762 0.00888094 
53 1 15.3971 17.3984 22.5944 C 0.092227 0.0349436 -0.0180833 
102 1 15.1814 17.6414 27.3696 C -0.0326602 -0.149968 -0.0415118 
113 1 15.1084 19.8149 24.9324 C 0.055888 0.0936989 -0.0958533 
57 1 20.1934 17.4954 22.7137 C -0.0319894 0.0440035 -0.0768495 
66 1 17.7532 20.045 22.4609 C -0.0490378 0.0131168 0.134844 
100 1 17.713 17.6524 25.0941 C -0.00407897 -0.0644925 -0.193931 
106 1 20.0598 17.5542 27.2918 C 0.11645 0.0158031 -0.0399899 
115 1 17.3949 19.9701 27.2273 C 0.228028 0.186815 0.0540597 
117 1 20.0112 20.2265 24.9722 C 0.0241932 -0.128291 -0.0107508 
61 1 24.8757 17.6475 22.5273 C -0.0390491 0.00318222 0.0140092 
70 1 22.4298 20.0021 22.6107 C 0.0579551 0.0367029 -0.0329022 
74 1 27.2217 19.9804 22.6818 C 0.0640856 0.0764814 -0.123843 
104 1 22.5794 17.704 24.9426 C -0.0462623 0.0126625 0.0270517 
108 1 27.1671 17.6668 24.899 C -0.00709654 -0.0200219 0.106092 
110 1 24.869 17.9255 27.3796 C 0.094242 -0.0677011 -0.00621812 
119 1 22.4193 19.9638 27.2281 C -0.0386269 0.182586 0.079621 
121 1 24.8431 20.1881 24.8904 C 0.0504473 -0.114395 0.0115029 
123 1 27.4239 20.296 27.1122 C -0.157616 0.0271389 0.0370421 
63 1 29.7255 17.7131 22.6069 C -0.0458082 -0.0340877 -0.0256974 
112 1 29.5587 17.695 27.2613 C -0.0730332 -0.0963595 0.0277891 
125 1 29.7733 19.9668 24.9606 C -0.0295305 0.0736692 -0.0161557 
67 1 14.7944 22.4109 22.6456 C 0.154276 -0.0826395 0.000730339 
81 1 15.4981 27.3967 22.2797 C -0.125727 0.00932336 0.0789967 
116 1 15.3347 22.3943 27.4481 C -0.128512 0.0730559 -0.183046 
127 1 15.1718 24.8415 24.8305 C 0.0553364 0.0309143 0.0617414 
130 1 15.2104 27.3406 27.0522 C 0.0628923 0.0721968 -0.00126084 
71 1 20.1415 22.526 22.5857 C -0.0102044 0.00426631 -0.0497424 
80 1 17.5096 24.9811 22.5844 C 0.199284 -0.117377 -0.0472043 
85 1 20.1579 27.3553 22.528 C 0.0112658 -0.0225015 0.0443528 
114 1 17.6229 22.4661 24.8785 C -0.0359252 0.0284198 0.00825058 
120 1 20.0739 22.5152 27.3486 C -0.0341438 0.0294451 -0.0442564 
128 1 17.9381 27.3967 25.0007 C -0.133909 -0.0210406 -0.15247 
129 1 17.5853 25.0759 27.2627 C 0.0728616 -0.151442 0.00805118 
131 1 20.1059 24.8723 24.8612 C -0.00118189 0.0181454 0.0358916 
134 1 19.9825 27.3396 27.5251 C 0.117811 -0.106831 -0.0617583 
75 1 24.8067 22.3719 22.3604 C 0.0436994 0.104895 0.121464 
84 1 22.5235 25.0154 22.4072 C -0.020103 -0.122404 0.0647839 
88 1 27.3146 24.9885 22.4304 C -0.0711853 0.0248446 0.0197826 
89 1 24.7392 27.3534 22.5626 C 0.110771 0.0140168 -0.072843 
118 1 22.5896 22.4592 24.8507 C -0.135053 0.0973527 0.00082148 
122 1 27.2447 22.5267 24.7007 C 0.00803832 0.0629304 0.0227238 
124 1 24.8279 22.4966 27.2144 C 0.056235 0.0293155 0.0140506 
132 1 22.4288 27.3877 25.0917 C -0.0892465 -0.0741685 -0.0926522 
133 1 22.4681 24.9032 27.222 C -0.0745998 -0.0252985 0.055328 
135 1 24.827 24.9968 24.887 C 0.0244568 -0.0539188 -0.0397783 
136 1 27.2656 27.3459 24.8911 C -3.35615e-05 -0.0627903 -0.0809547 
137 1 27.3077 24.9347 27.1144 C -0.0397052 -0.014004 0.0367028 
138 1 24.8903 27.2211 27.4747 C -0.0652636 0.0208218 -0.100193 
77 1 29.9843 22.1206 22.5328 C -0.0836599 0.015023 0.0693658 
91 1 29.6019 27.5064 22.3459 C -0.00290673 -0.0980658 0.00845792 
126 1 29.7003 22.7342 27.1941 C -0.0247836 -0.0203054 -0.0494426 
139 1 29.8117 24.741 24.4475 C -0.0446262 0.0840204 0.0997661 
140 1 29.9787 27.1546 27.0067 C -0.104439 0.0136467 -0.0500436 
141 1 15.3366 29.9799 24.7263 C 0.0397022 -0.10038 0.0575588 
93 1 17.5165 29.8891 22.3222 C 0.201519 -0.0250957 -0.00786811 
142 1 17.6951 29.7076 27.3379 C -0.0774419 -0.0304877 -0.00314255 
143 1 20.0407 29.8996 24.95 C 0.0544856 -0.0739151 -0.0263827 
95 1 22.5955 29.8949 22.6231 C -0.0084975 -0.0981671 0.0145213 
97 1 27.293 29.7513 22.3762 C -0.114005 -0.0446835 -0.00790543 
144 1 22.3939 29.6233 27.5178 C 0.00199671 -0.00598449 -0.0236815 
145 1 24.7946 29.5634 25.0871 C 0.0973901 0.0240197 0.0171515 
146 1 27.4653 29.4697 27.3748 C -0.0931516 -0.0555956 0.119485 
147 1 29.4811 29.882 24.9805 C 0.0515554 -0.046881 -0.122758 
148 1 14.9863 15.5016 30.4752 C 0.0581772 0.072132 -0.0759204 
150 1 19.8997 15.2994 29.8011 C 0.0348817 0.0516112 -0.0585254 
152 1 25.5239 15.6667 29.8886 C -0.0957477 -0.0103783 -0.0113459 