ITEM: TIMESTEP
40000
ITEM: NUMBER OF ATOMS
172
ITEM: BOX BOUNDS pp pp pp
0 50
0 50
0 50
ITEM: ATOMS x y z element fx fy fz 
15.4996 15.0912 15.8163 Ar -0.0306664 0.0502927 -0.0238094 
20.3342 15.6063 15.2785 Ar -0.0966712 -0.0780011 -0.0745792 
24.7548 15.3719 15.3578 Ar 0.0480688 0.0728049 0.0108229 
29.144 15.3483 15.2542 Ar 0.0323508 0.00945661 0.0117974 
15.4303 20.1168 15.5567 Ar 0.0136291 0.0114595 0.0549216 
17.7437 17.7724 15.6111 Ar -0.0217986 -0.00195272 -0.020194 
19.9731 20.2774 15.308 Ar 0.128855 -0.102815 0.0309388 
22.5466 17.9865 15.229 Ar 0.0108494 0.0178276 0.0182893 
27.1874 17.9536 15.2955 Ar -0.0439721 0.0109805 0.0638857 
24.8777 20.3108 15.3494 Ar -0.0954371 -0.0252209 0.00738533 
29.7083 20.3566 15.6376 Ar -0.048166 -0.0361876 -0.0119062 
15.4465 25.0318 15.4673 Ar 0.018606 -0.0809901 -0.035683 
17.716 22.5011 15.3351 Ar -0.123967 0.029982 0.0539942 
17.9318 27.2777 15.3971 Ar 0.126538 -0.136908 0.0497873 
20.0315 24.7351 15.1227 Ar 0.0604944 0.0709093 0.097048 
22.5605 22.6523 15.4357 Ar -0.0800582 -0.0888398 -0.0301999 
27.2181 22.4925 15.5712 Ar 0.0547712 0.0354777 -0.0172257 
22.4744 27.0614 15.3414 Ar -0.00551742 0.00269329 0.0569356 
24.9056 24.8443 15.4786 Ar -0.0330596 -0.00884093 -0.0261462 
27.1066 27.1556 15.5284 Ar 0.0799671 -0.0115622 -0.0679862 
29.5157 24.8676 15.633 Ar 0.0522759 -0.0474355 -0.101751 
15.6955 29.4459 15.361 Ar -0.160464 0.0947105 -0.0472293 
20.2987 29.7132 15.5732 Ar -0.0122272 -0.0602355 0.0237691 
24.8496 29.5307 15.2689 Ar -0.0478178 -0.0415971 0.0415655 
29.2482 29.6241 15.1445 Ar 0.00855341 -0.0242963 0.024765 
15.5324 15.3137 20.3188 Ar 0.0216203 0.0602705 -0.0350567 
17.9074 15.3777 17.8987 Ar 0.0613764 0.0466969 0.0431983 
20.1435 15.4784 20.2479 Ar 0.0620503 0.0360215 -0.140435 
22.4733 15.4486 17.6914 Ar 0.0349472 -0.00480074 0.0992121 
27.1136 15.4249 17.7967 Ar -0.0322029 0.0775396 0.00673363 
24.7661 15.5624 20.0701 Ar -0.0106055 -0.0673864 0.0274359 
29.5587 15.6288 20.0937 Ar -0.0249253 -0.0153853 0.0419574 
15.395 17.7553 17.9868 Ar 0.0448268 0.00561607 -0.0078823 
15.5306 20.2417 20.1845 Ar -0.0939398 -0.119491 -0.114885 
20.2564 17.7543 17.6156 Ar -0.061378 0.170049 0.219863 
17.8891 20.2401 17.9202 Ar -0.0592473 -0.0390314 -0.173347 
17.8975 17.9251 20.1147 Ar 0.026788 -0.192891 0.045102 
20.193 20.163 20.1735 Ar 0.0564835 0.0251806 -0.0506556 
24.7598 17.8664 17.6659 Ar -0.0462931 -0.0538815 0.0270157 
22.3818 20.2208 17.6855 Ar 0.0434024 -0.0177353 -0.00933875 
26.9769 20.1347 17.8024 Ar 0.158719 0.122453 0.0395534 
22.4599 17.7957 20.162 Ar -0.0692618 0.0615093 -0.0953746 
27.067 17.8509 20.121 Ar -0.0525644 0.045018 -0.0338027 
24.6382 20.2075 20.0332 Ar 0.161722 -0.0742405 0.0982438 
29.4084 17.9605 17.8441 Ar 0.00161144 -0.0944654 -0.112222 
29.3928 20.2277 20.0958 Ar 0.0240645 -0.074038 0.103459 
15.4024 22.5588 17.9056 Ar 0.0196104 -0.107435 -0.181375 
15.4915 27.1943 17.8237 Ar 0.0218713 0.0182565 0.0169181 
15.5623 24.7874 20.0742 Ar -0.066356 0.151408 0.10516 
20.1062 22.5632 17.6658 Ar 0.0643921 -0.00199613 0.114982 
17.8239 24.7744 17.7316 Ar 0.0138026 0.10911 -0.00846311 
20.1971 27.1114 17.7922 Ar -0.0386334 0.0226892 -0.0723254 
17.7915 22.5096 20.2037 Ar 0.191388 0.0268851 -0.0852708 
17.8223 27.1866 20.1212 Ar 0.0516574 0.0384569 -0.0795294 
20.0635 24.908 20.1177 Ar 0.121578 -0.123375 -0.00187007 
24.8165 22.5888 17.8284 Ar 0.0330742 -0.110384 -0.038616 
22.4931 24.8118 17.868 Ar -0.0582683 0.141277 -0.074159 
27.1935 24.8183 17.8288 Ar 0.0396391 0.0342589 0.11134 
24.8804 27.121 17.8537 Ar 0.00789223 -0.0441109 0.00807602 
22.492 22.4931 20.0541 Ar -0.173177 0.0730887 0.0891585 
27.2213 22.5798 20.1608 Ar -0.121812 -0.0800806 -0.00497456 
22.452 27.1818 20.3112 Ar 0.0725673 0.00753552 -0.18729 
24.828 24.8385 20.1088 Ar 0.0225594 0.0358545 0.15856 
27.256 27.1237 20.1922 Ar -0.0597888 0.0766051 -0.0279501 
29.7915 22.5845 18.0087 Ar -0.0807889 0.0200171 -0.0909091 
29.6053 27.2383 17.7888 Ar -0.0612811 0.0641578 0.0871508 
29.5739 24.837 20.2588 Ar 0.0507752 0.0691388 0.0124639 
15.3955 29.4904 20.1591 Ar -0.0387378 0.0173232 -0.0493333 
17.7774 29.6386 17.7895 Ar 0.0556924 -0.0500768 0.059971 
20.1812 29.5673 19.9604 Ar -0.0271341 -0.0169035 0.0845836 
22.6559 29.3015 17.8354 Ar -0.0949308 0.1143 -0.0671069 
27.127 29.5845 17.6753 Ar 0.00265973 -0.0180575 0.104249 
24.9031 29.5371 20.1245 Ar 0.0161839 -0.0412186 0.107508 
29.3119 29.6861 20.257 Ar 0.0358353 -0.034129 -0.0677477 
15.4906 15.5722 24.6283 Ar -0.00946256 -0.0258567 0.0795292 
17.9346 15.3305 22.5111 Ar 0.02776 0.0996716 0.0762292 
17.8651 15.4654 27.1012 Ar 0.019573 -0.0695653 0.0299878 
20.2704 15.5439 24.9859 Ar -0.00253361 -0.0489339 -0.105882 
22.4337 15.3273 22.4807 Ar 0.0578281 0.0612273 0.0175243 
27.1221 15.4543 22.4212 Ar -0.0717372 0.0215784 0.022117 
22.5291 15.6613 27.2592 Ar 0.171377 -0.0669053 -0.169251 
24.6927 15.6568 24.7757 Ar 0.0467573 -0.120401 -0.0232354 
26.8709 15.5061 27.1526 Ar 0.151649 -0.0236407 0.0264559 
29.2942 15.6506 24.9191 Ar 0.0421209 -0.036956 -0.02681 
15.548 17.9374 22.4488 Ar -0.0185557 -0.121346 -0.0730512 
15.7384 17.7887 27.1564 Ar -0.120138 0.069412 0.0272621 
15.5995 20.1494 24.7482 Ar -0.0271536 -0.0112527 0.0626285 
20.2843 17.8378 22.6068 Ar -0.171604 -0.0334004 -0.199745 
17.8429 20.1556 22.4457 Ar 0.14308 0.0550305 0.0320053 
17.934 17.8225 24.8054 Ar -0.00300127 0.0115173 -0.0396923 
20.1898 17.9126 27.2666 Ar 0.0662172 -0.0238368 -0.0564637 
17.9737 20.1796 27.1642 Ar -0.128471 -0.00808391 -0.0185334 
20.1111 20.2272 24.7918 Ar 0.132667 -0.0112768 0.0248781 
24.7616 17.9039 22.397 Ar 0.0120897 -0.014404 0.0696173 
22.4517 20.2219 22.5259 Ar 0.00618202 0.00169111 -0.103816 
27.0569 20.2407 22.4664 Ar 0.0236858 0.0211688 -0.0753404 
22.4983 17.9278 24.8036 Ar 0.04002 0.0717596 0.135443 
26.99 17.9099 24.8731 Ar 0.0802331 0.0701249 -0.0705035 
24.8204 17.9369 27.197 Ar -0.113782 0.0626553 0.0365823 
22.4646 20.2144 27.2093 Ar 0.0787827 -0.0325686 -0.0125497 
24.8209 20.294 24.7273 Ar -0.0547146 -0.130611 0.191957 
27.0737 20.2241 27.2262 Ar 0.116086 -0.0240611 -0.0762094 
29.2424 17.9384 22.5059 Ar 0.12371 -0.0334009 -0.00923799 
29.4204 17.911 27.2958 Ar -0.00625391 -0.0998333 0.00363146 
29.6146 20.0532 24.9735 Ar -0.0743357 0.0447348 -0.119688 
15.4298 22.4807 22.3848 Ar -0.00106092 0.0734508 0.151322 
15.5454 27.078 22.3916 Ar -0.0655486 0.0313504 0.097268 
15.4973 22.3945 27.0082 Ar 0.0179433 0.0520434 0.0983781 
15.4211 24.7479 24.7552 Ar 0.0562951 0.0822015 0.00884724 
15.5491 27.1854 27.1593 Ar 0.0194133 -0.037374 -0.0519241 
20.1699 22.5403 22.4185 Ar 0.0432073 0.000541002 0.041633 
17.8817 24.8621 22.4555 Ar -0.0224904 -0.0288087 0.0973322 
20.0926 27.2587 22.5302 Ar 0.0794706 -0.0431534 -0.0212388 
17.8904 22.5232 24.717 Ar -0.0442693 0.0249046 0.0655467 
20.2067 22.4724 27.1962 Ar 0.0349766 0.0824065 -0.0725249 
17.9102 27.2162 24.7973 Ar -0.0968514 -0.0503462 0.0661111 
17.8555 24.8483 27.0664 Ar -0.0283498 -0.0192492 0.0200567 
20.242 24.8231 24.9323 Ar -0.0174157 0.0254813 -0.16882 
20.1973 27.1852 27.199 Ar 0.0632102 -0.0274424 -0.025518 
24.7234 22.4953 22.4497 Ar 0.116864 0.137757 -0.0760929 
22.4425 24.8496 22.3945 Ar 0.0287769 -0.0680191 0.14722 
27.2172 24.8382 22.4756 Ar -0.0144282 -0.0790998 0.08604 
24.8991 27.1769 22.5439 Ar -0.0523083 -0.0133141 -0.123928 
22.5137 22.5098 24.8421 Ar -0.0548266 0.0576161 -0.0105944 
27.2526 22.44 24.8418 Ar -0.0287785 0.0887115 -0.0530594 
24.8826 22.5114 27.156 Ar -0.107606 0.00348802 0.032148 
22.6314 27.0606 24.8427 Ar -0.175527 0.164014 -0.0527193 
22.6368 24.8665 27.1391 Ar -0.0654377 -0.0759738 0.142986 
24.891 24.825 24.7896 Ar 0.0372495 -0.11861 0.00714996 
27.217 27.0846 24.8376 Ar -0.0284488 0.0240126 0.0843232 
27.2412 24.7346 27.1894 Ar 0.078998 0.166734 -0.189923 
24.9311 27.1377 27.2505 Ar -0.103418 0.0522524 -0.211145 
29.6461 22.3875 22.5785 Ar -0.052652 -0.00207452 -0.0486565 
29.6519 27.2373 22.61 Ar -0.0536702 -0.00759009 -0.0670115 
29.6201 22.4558 27.1196 Ar 0.0322536 0.0223362 0.0462138 
29.7271 24.7801 24.794 Ar -0.0884927 0.0432728 0.0425764 
29.5708 27.183 27.2639 Ar -0.00626677 -0.108218 -0.10786 
15.5687 29.5071 24.7554 Ar -0.0166891 -0.00961749 0.0527195 
17.7199 29.5876 22.358 Ar 0.18173 0.000172743 0.0411795 
17.9105 29.4976 27.4229 Ar -0.0715044 0.0318036 -0.0707353 
20.1131 29.6222 25.0205 Ar 0.0747474 -0.0233765 -0.0991159 
22.3333 29.5893 22.4517 Ar 0.0437594 0.00681598 0.0261499 
27.1436 29.5625 22.6196 Ar -0.0359118 -0.0320428 -0.00228869 
22.5871 29.369 27.3215 Ar 0.0685615 0.0413743 -0.129826 
24.6382 29.6199 24.7121 Ar 0.00900674 -0.0323991 0.0410913 
26.8779 29.7732 26.9937 Ar 0.0323584 -0.0625487 0.117796 
29.3797 29.4893 25.0127 Ar 0.0952264 0.0671125 -0.0427164 
16.6526 14.9515 30.2218 Ar 0.00326602 -0.0446465 -0.031512 
20.2655 15.2594 29.3302 Ar -0.14004 0.0190815 0.137906 
24.8222 15.4133 29.6034 Ar 0.00131262 0.0113902 0.0390571 
27.9678 14.6082 30.3332 Ar -0.00551025 0.0597025 -0.0512721 
15.6066 20.0883 29.5219 Ar 0.0052754 0.0225074 -0.0173026 
18.0152 17.7815 29.6324 Ar 0.0108747 0.071341 -0.0253443 
20.1813 20.2603 29.6693 Ar 0.0176192 -0.0771303 -0.0206497 
22.6205 17.7516 29.6849 Ar -0.139106 0.128719 0.00432646 
27.1797 17.983 29.5839 Ar -0.0962795 -0.151717 0.0477971 
24.7917 20.1767 29.6065 Ar 0.0187744 0.0969383 -0.00736084 
29.537 20.2165 29.6436 Ar 0.0463543 0.0179565 -0.0236482 
15.6031 24.7684 29.4801 Ar -0.0816399 0.0512779 -0.0209735 
17.8224 22.5214 29.3785 Ar 0.0700056 -0.0190692 0.0733687 
17.9495 27.1227 29.6103 Ar -0.0348266 -0.0077081 0.0142362 
20.2334 24.8462 29.3917 Ar -0.00225708 -0.0402633 0.0654853 
22.4871 22.5066 29.6617 Ar 0.0935491 0.0794988 -0.0759683 
27.3485 22.5613 29.4351 Ar -0.139655 -0.105935 0.151686 
22.6049 27.1433 29.7445 Ar 0.0274626 -0.0547693 -0.0624942 
25.0289 24.858 29.4963 Ar -0.140682 -0.0904098 0.0964101 
27.1695 27.2842 29.3835 Ar 0.120418 0.0505988 0.141148 
29.5946 24.879 29.6619 Ar -0.0119286 0.0194173 -0.0493077 
14.6767 27.9273 30.2306 Ar 0.0332565 0.000123324 0.00561761 
20.4045 29.5893 29.6196 Ar -0.0847233 -0.0296832 0.0447173 
24.8751 29.7188 29.7387 Ar -0.00917041 -0.0661058 -0.0556027 
29.608 29.7016 29.2947 Ar -0.065122 0.0127364 -0.0157191 
ITEM: TIMESTEP
41000
ITEM: NUMBER OF ATOMS
172
ITEM: BOX BOUNDS pp pp pp
0 50
0 50
0 50
ITEM: ATOMS x y z element fx fy fz 
15.6535 15.5145 15.5761 Ar -0.0052096 -0.0418097 -0.032854 
20.2915 15.3598 15.3935 Ar -0.0249931 0.0652879 0.00973755 
24.7999 15.4803 15.3091 Ar -0.00853098 -0.0285532 0.0383957 
29.3517 15.6272 15.2354 Ar 0.00285622 -0.0191609 0.0315425 
15.3949 20.1584 15.5476 Ar 0.0803865 -0.0112487 -0.0350314 
17.9471 17.8703 15.3567 Ar -0.0108072 0.0147949 0.0741108 
20.2632 20.1579 15.2202 Ar 0.00721544 0.00479339 0.10104 
22.6024 17.857 15.2978 Ar -0.0694806 -0.00105172 0.0621425 
27.0167 17.8628 15.4529 Ar 0.00720316 0.0326982 0.0255199 
24.7978 20.1978 15.5038 Ar 8.4012e-05 -0.0120122 -0.0245941 
29.4051 20.2955 15.2847 Ar -0.0568654 -0.0273686 0.0382466 
15.7263 24.7736 15.1723 Ar -0.0344733 0.0254315 0.0212153 
17.9833 22.4989 15.3351 Ar -0.0240666 -0.104919 0.0872946 
18.0565 27.1005 15.482 Ar -0.0340011 0.0759392 -0.0165768 
20.2635 24.7734 15.4796 Ar 0.0346592 0.0516814 -0.0195349 
22.532 22.4662 15.4343 Ar 0.0274267 0.0317548 -0.0755173 
26.9408 22.6613 15.3211 Ar 0.0903969 -0.0586331 0.0403316 
22.4148 27.3082 15.5659 Ar 0.0221796 0.0186641 -0.0244776 
24.697 24.9579 15.4482 Ar 0.0230884 0.0419514 -0.022867 
27.0475 27.3066 15.3704 Ar -0.0395844 -0.0734272 0.0438604 
29.4586 24.8973 15.333 Ar -0.0530637 -0.00758408 -0.014452 
16.1931 29.8669 15.2899 Ar 0.00570202 -0.0431031 0.00603289 
20.1214 29.6314 15.858 Ar -0.00861427 0.055919 -0.0732019 
24.7654 29.7412 15.7486 Ar -0.0396054 -0.000969051 -0.0359505 
29.3356 29.6828 15.4816 Ar 0.0170565 -0.00851924 0.00565572 
15.5177 15.5453 20.2124 Ar -0.00458079 -0.00900239 -0.0663559 
18.0383 15.5373 17.8734 Ar -0.0614693 0.0179078 -0.0272596 
20.2164 15.403 20.2292 Ar 0.0545177 0.0753736 0.00763996 
22.5133 15.5327 17.7858 Ar -0.0195346 -0.059716 0.0391829 
27.0313 15.3894 17.7605 Ar 0.0605367 0.0570098 0.00147055 
24.8374 15.4611 20.1619 Ar -0.082483 -0.0329314 0.00417228 
29.5929 15.4008 20.0883 Ar -0.0715385 0.0645689 0.00148866 
15.517 17.8253 17.8275 Ar 0.0716974 0.0667127 0.0798919 
15.514 20.2522 20.2013 Ar 0.0114504 -0.0421247 -0.0795509 
20.2929 17.8988 17.7276 Ar -0.0272613 -0.0153751 0.0439183 
17.9332 20.2179 17.8817 Ar -0.0958773 -0.0320919 -0.210665 
17.9318 17.8912 20.1962 Ar -0.0480107 -0.0553603 -0.00684342 
20.1466 20.1422 20.1355 Ar 0.127781 0.086333 0.157192 
24.7085 17.8191 17.914 Ar 0.164795 0.0320408 -0.208165 
22.5292 20.2002 17.9021 Ar -0.0166797 -0.0688354 -0.099573 
27.1085 20.2003 17.7638 Ar 0.0169492 0.0316533 0.00156715 
22.6084 17.8605 20.266 Ar -0.290752 -0.0445419 -0.0251028 
27.139 17.8369 20.066 Ar 0.0472025 0.0151158 0.0185858 
24.8099 20.159 20.113 Ar 0.083177 0.155226 0.119252 
29.4551 17.8553 17.7467 Ar -0.0121219 -0.00187882 -0.0161722 
29.5042 20.192 20.1075 Ar 0.0575737 -0.0694343 -0.00526595 
15.4067 22.5663 17.6907 Ar 0.0781857 0.0295732 0.0773597 
15.524 27.0476 17.5977 Ar 0.0277141 0.0600806 0.0393112 
15.3366 24.874 20.1495 Ar 0.0924587 0.00184256 -0.0140023 
20.3508 22.4577 17.7687 Ar -0.238717 0.0501294 0.0538243 
17.8707 24.8091 17.7945 Ar 0.023686 -0.0967922 -0.0254708 
20.215 27.1171 17.9232 Ar 0.013952 0.0644429 -0.0448072 
17.8431 22.5384 20.0809 Ar -0.00271914 0.009361 0.0540313 
17.9788 27.0106 20.1565 Ar -0.333567 0.101714 0.00736293 
20.1941 24.8138 20.1456 Ar 0.0657754 -0.115843 0.0704885 
24.7409 22.5484 17.783 Ar 0.13593 -0.0117132 0.128647 
22.5422 24.8439 17.805 Ar -0.0488385 0.0538157 0.111833 
27.0716 24.8729 17.8002 Ar -0.0124415 0.0208379 -0.00119477 
24.7013 27.2797 17.8996 Ar 0.0915512 -0.0933861 0.0350067 
22.4653 22.5862 20.2064 Ar 0.110431 -0.0889132 0.0208533 
27.2203 22.3848 20.1752 Ar -0.143332 0.0691026 -0.119849 
22.4484 27.1523 20.26 Ar 0.0476129 -0.00995547 0.06756 
24.8764 24.8797 20.2013 Ar -0.148738 -0.157363 -0.0329379 
27.1298 27.07 20.3475 Ar 0.164318 0.112355 -0.161144 
29.4715 22.5892 17.6721 Ar -0.0464231 -0.0382515 0.0461567 
29.4589 27.1279 17.7083 Ar 0.000737591 -0.0407667 0.0489489 
29.4345 24.7815 20.1604 Ar 0.103793 0.02418 -0.0350379 
15.3549 29.1822 20.1659 Ar -0.0657086 -0.0211433 -0.0494601 
17.8079 29.6153 18.1028 Ar -0.0270466 -0.0803108 -0.0245918 
20.1105 29.5149 20.2887 Ar 0.112902 -0.0104361 -0.0202019 
22.4404 29.6644 18.1425 Ar 0.0817745 -0.017082 -0.044026 
27.1603 29.4153 17.9175 Ar 0.0133515 0.0250538 0.0281949 
25.0048 29.5545 20.2871 Ar -0.143194 -0.00200291 -0.00654931 
29.6423 29.4093 20.045 Ar -0.0096759 -0.0337383 0.0629251 
15.4922 15.5017 24.7373 Ar -0.0111461 0.0195374 0.0804965 
17.7854 15.4108 22.496 Ar 0.0446178 0.0368508 -0.0900999 
17.8771 15.4404 27.1735 Ar -0.0471701 0.0621192 0.0200026 
19.9703 15.3128 24.7607 Ar 0.188473 0.0639377 0.0635649 
22.5211 15.5079 22.5656 Ar 0.042431 -0.0637182 -0.0111097 
27.1116 15.5488 22.3939 Ar 0.0439621 -0.0816635 0.0855327 
22.4189 15.3585 27.1408 Ar -0.0505405 0.0582313 -0.131173 
24.8952 15.4737 24.9356 Ar -0.0539852 -0.0844347 -0.0473243 
27.3189 15.2876 27.1742 Ar -0.0560067 0.0624604 0.010263 
29.5694 15.4019 24.7325 Ar -0.0442186 0.0187981 0.0295351 
15.6089 17.8985 22.491 Ar -0.0684288 0.0369445 -0.00668297 
15.4834 17.819 27.2291 Ar 0.0544976 -0.0242003 0.0103171 
15.5182 20.1705 24.924 Ar -0.0923824 0.0501491 0.000689816 
20.1641 17.7777 22.5789 Ar 0.0113744 0.0577282 -0.0846128 
17.8105 20.3229 22.6203 Ar 0.0390278 -0.151402 -0.200185 
17.8287 17.9275 24.8267 Ar 0.0307466 -0.0810575 0.0679846 
20.1265 17.8668 27.0873 Ar 0.047534 -0.0496219 0.0678174 
17.7832 20.2352 27.3293 Ar 0.109373 -0.174589 -0.0469444 
20.2506 20.1604 24.7399 Ar -0.116131 0.032648 0.184739 
24.889 17.9035 22.456 Ar -0.0575264 -0.0116237 0.0743632 
22.4344 20.2627 22.4864 Ar 0.141728 -0.0597586 -0.0420482 
27.2239 20.0901 22.5206 Ar -0.091766 0.058911 -0.00343973 
22.6274 17.7998 24.7895 Ar -0.144185 0.0746723 0.071798 
27.0461 17.7788 24.8534 Ar 0.169493 0.0884994 0.0451739 
24.8152 17.9121 27.1748 Ar -0.0502572 -0.0960211 0.021043 
22.418 20.19 27.161 Ar 0.135621 -0.0933985 0.0676484 
24.7974 20.2406 24.8662 Ar 0.0109305 -0.107768 -0.0220262 
27.1015 20.1803 27.19 Ar 0.00430641 -0.00199138 0.0780418 
29.4374 17.7861 22.5419 Ar 0.0692792 0.0304736 -0.0911491 
29.4936 17.795 27.1847 Ar -0.0547084 0.0323906 -0.0395491 
29.5554 20.0804 24.8917 Ar -0.0341903 0.0207871 0.0278883 
15.44 22.5296 22.5082 Ar -0.0178362 0.0207831 0.0353398 
15.381 27.1027 22.6441 Ar 0.0564584 -0.105245 0.000714706 
15.5063 22.4792 27.3622 Ar -0.0217001 -0.0271271 -0.0140147 
15.1249 24.6502 25.0421 Ar 0.118887 0.0870167 -0.0838755 
15.5156 27.1925 27.2048 Ar -0.0167674 0.046349 -0.0528033 
20.0778 22.5218 22.53 Ar 0.173237 -0.0115783 -0.0664847 
17.8246 24.7247 22.4878 Ar -0.132413 0.108248 0.052512 
20.0235 27.1248 22.5563 Ar 0.164184 -0.0831778 -0.117609 
17.8029 22.4865 24.9411 Ar -0.00680499 0.0519176 0.00558277 
20.1297 22.3717 27.2624 Ar 0.0366911 0.178552 -0.0911833 
17.8045 27.1183 24.8308 Ar -0.0785952 0.0130244 -0.0102691 
17.8363 24.8768 27.1117 Ar -0.0204804 -0.0726666 0.0816659 
20.1248 24.7635 24.8288 Ar -0.0238932 0.0245224 -0.000909691 
20.1098 27.2515 27.1562 Ar -0.0679646 -0.0183164 -0.152305 
24.9273 22.4413 22.536 Ar -0.146697 0.00380401 -0.0702753 
22.5278 24.773 22.5983 Ar -0.0244428 -0.0166917 -0.0956427 
27.2134 24.6259 22.4193 Ar -0.119392 0.205242 0.20604 
24.8188 27.1425 22.5339 Ar -0.033744 0.0152497 0.0576379 
22.5376 22.493 24.9245 Ar -0.142216 0.0487559 -0.146414 
27.1701 22.4011 24.9072 Ar -0.00745336 0.0581572 -0.0101465 
24.7037 22.6084 27.2254 Ar 0.0619982 -0.153189 0.106653 
22.3916 27.1617 24.6998 Ar 0.0137384 0.0959657 0.0499788 
22.3399 24.9348 27.0575 Ar 0.105787 -0.128025 0.136592 
24.8655 24.7841 24.9034 Ar -0.0218224 0.00759479 -0.195605 
27.0716 27.2009 24.8271 Ar 0.0696207 -0.0404124 -0.0407122 
27.1137 24.7663 27.1864 Ar 0.0519351 0.0122958 -0.0151716 
24.6286 27.1583 27.0037 Ar 0.141763 0.0916204 0.108926 
29.4993 22.3855 22.6006 Ar 0.0900241 -0.0380498 -0.110958 
29.6925 27.1551 22.6831 Ar -0.0751296 0.0502506 -0.0912406 
29.6049 22.5012 27.2722 Ar -0.086475 -0.0394691 -0.0290553 
29.4038 24.748 24.7282 Ar 0.0356493 -0.0296464 0.15716 
29.5221 27.0376 26.9796 Ar -0.0222013 0.00295376 0.110775 
15.5811 29.6147 24.7609 Ar -0.0299954 -0.0161505 0.0150089 
17.7324 29.5343 22.2871 Ar -0.0904196 -0.0353439 0.127202 
17.8321 29.6694 27.0876 Ar 0.0807663 -0.0499736 -0.0283826 
20.0023 29.5333 24.595 Ar 0.0640279 0.0665917 0.125926 
22.5156 29.6618 22.4592 Ar -0.0293315 -0.0696122 -0.0248441 
27.3535 29.5311 22.4663 Ar 0.00225178 -0.00492755 0.116168 
22.3175 29.5451 27.0552 Ar 0.0639505 0.0721576 -0.0684228 
24.7556 29.6653 24.7555 Ar 0.0416678 -0.0629587 0.0135678 
27.0005 29.5218 27.1474 Ar 0.167669 0.00863031 -0.186539 
29.5705 29.6822 25.0819 Ar -0.0412787 -0.028544 -0.0561404 
16.9178 14.3674 30.143 Ar 0.0316853 0.0559982 -0.00722099 
20.2282 15.386 29.5924 Ar -0.0601104 0.00813449 -0.0250629 
24.7327 15.1501 29.3708 Ar 0.0630344 0.0462345 -0.0104063 
29.6691 15.6596 29.5956 Ar -0.0254731 -0.0171991 0.024204 
15.5224 20.1181 29.669 Ar 0.00677098 0.0219701 0.0230449 
17.8779 17.7635 29.7347 Ar 0.0158409 -0.0151742 -0.0975225 
20.3052 20.0678 29.6632 Ar -0.0656679 0.0066211 -0.0256921 
22.555 17.6648 29.4778 Ar -0.0319084 0.0437352 -0.00229139 
26.975 17.6783 29.5468 Ar 0.002675 0.0122463 -0.015859 
24.6466 20.1575 29.685 Ar -0.0395669 -0.0524859 -0.0870445 
29.2595 20.0443 29.669 Ar 0.0251692 0.0161062 -0.023434 
15.5784 24.864 29.5454 Ar -0.00475483 0.0323301 0.032558 
17.9571 22.5912 29.6604 Ar -0.0365824 -0.0773701 0.00551317 
17.8473 27.2943 29.5245 Ar -0.0993349 -0.0648319 -0.00684088 
20.1322 24.9522 29.4278 Ar 0.0246866 -0.000559464 0.0592474 
22.4086 22.6198 29.635 Ar 0.0420744 0.00107348 -0.0542924 
26.9011 22.3636 29.7474 Ar 0.109546 0.0991505 -0.0851816 
22.4612 27.3059 29.4264 Ar 0.0628684 -0.0712493 0.0566714 
24.8604 24.918 29.5419 Ar -0.135897 0.0041966 -0.0179682 
27.0922 27.2145 29.3661 Ar 0.0392011 0.0479136 0.0144415 
29.2903 24.7609 29.6513 Ar -0.00766008 0.0112955 -0.0103008 
15.5351 29.8496 29.3434 Ar -0.00830659 -0.0443449 0.016687 
20.0828 29.5258 29.5135 Ar 0.0546936 0.116013 0.0225268 
24.8344 29.7467 29.327 Ar -0.179195 -0.0498298 0.106401 
29.7542 29.6474 29.1069 Ar -0.0558967 -0.0484384 -0.0438855 
ITEM: TIMESTEP
42000
ITEM: NUMBER OF ATOMS
172
ITEM: BOX BOUNDS pp pp pp
0 50
0 50
0 50
ITEM: ATOMS x y z element fx fy fz 
15.4593 15.4081 15.295 Ar 0.019134 0.00333572 0.025482 
20.174 15.6241 15.3536 Ar 0.0492712 -0.116272 -0.0353932 
24.9624 15.6049 15.281 Ar -0.0650703 0.0468901 -0.0630933 
29.5433 15.776 15.3031 Ar -0.0159878 -0.0112131 0.0276497 
15.4655 19.9917 15.5934 Ar -0.0047608 0.0984235 -0.0126918 
17.7997 17.7398 15.4307 Ar -0.0113907 0.138794 0.0322838 
20.0815 20.2373 15.5792 Ar -0.0443095 -0.0952874 -0.0960211 
22.4803 17.8845 15.4883 Ar 0.0684879 0.143686 -0.146699 
27.2265 18.0751 15.4557 Ar -0.0219118 -0.00613375 0.0194749 
24.826 20.2501 15.49 Ar 0.0995411 -0.0646017 0.0124653 
29.7357 20.2443 15.5929 Ar -0.0385855 -0.0179674 0.0495052 
15.2754 24.8345 15.4274 Ar 0.0685483 -0.00153136 0.060976 
17.7714 22.6516 15.5798 Ar -0.0408133 -0.12223 -0.0419057 
17.9868 27.0712 15.5043 Ar -0.0113593 0.00951853 -0.0134292 
20.2028 24.7785 15.1331 Ar 0.0376455 -0.0973356 0.116519 
22.5013 22.3075 15.2003 Ar -0.0814175 0.176966 0.101923 
27.288 22.5545 15.4996 Ar -0.142818 -0.025354 -0.0410892 
22.429 27.0794 15.366 Ar -0.031818 0.0398028 -0.00545717 
24.7638 24.7589 15.4228 Ar -0.0354333 -0.101429 0.0339827 
26.954 27.0678 15.4198 Ar 0.0600653 -0.0502861 0.0232915 
29.502 24.996 15.4078 Ar -0.00120098 0.014204 0.0703277 
16.0666 29.683 15.2963 Ar -0.00487941 0.00177487 0.0304523 
20.1447 29.6904 15.3404 Ar -0.0802891 -0.0792075 -0.0341685 
24.7437 29.3438 15.3538 Ar -0.0211962 0.108994 0.00452087 
29.2214 29.2995 15.311 Ar 0.0555159 0.0346548 0.00938778 
15.7337 15.3029 20.033 Ar -0.0601249 -0.0285457 0.14421 
17.8794 15.4504 17.7077 Ar 0.0575759 -0.0238428 -0.00666983 
20.3363 15.4324 20.0588 Ar 0.00835577 0.00446956 -0.031844 
22.6305 15.5841 17.6272 Ar -0.0144323 -0.120887 0.140914 
27.023 15.506 17.6866 Ar 0.104565 0.00720783 0.0568333 
24.8308 15.3992 20.1064 Ar -0.0440733 0.0813328 -0.0889738 
29.0913 15.2581 20.2656 Ar 0.0506986 0.0365239 -0.0708658 
15.2338 17.6015 17.7966 Ar 0.0979301 0.0751946 0.0449768 
15.4068 20.0518 20.2719 Ar 0.0218024 0.0254389 -0.0753488 
20.2201 17.7751 17.7905 Ar -0.0920042 0.111401 0.0825258 
17.8199 20.1963 17.8697 Ar -0.0731771 -0.0856196 0.0461317 
17.8645 17.7878 20.0776 Ar -0.0135337 -0.0419143 0.0352396 
20.0885 20.1362 20.2651 Ar 0.103103 0.0468046 -0.0749438 
24.8605 17.916 17.7956 Ar -0.0298907 0.0499873 0.0425051 
22.4322 20.1485 17.8355 Ar 0.0530587 0.0917139 0.06305 
27.1649 20.2771 17.9376 Ar -0.0568788 -0.0599942 -0.090669 
22.5054 17.9088 20.1987 Ar 0.042718 -0.0699807 -0.0392439 
27.0491 17.931 20.1815 Ar 0.00494722 -0.0704258 0.0320163 
24.7249 20.2114 20.2634 Ar 0.139158 -0.00177161 -0.0980079 
29.4129 17.7821 17.9595 Ar 0.0182217 0.0207051 -0.00256946 
29.47 20.2206 20.1823 Ar 0.019242 0.0497506 -0.0158644 
15.3678 22.4477 17.9507 Ar 0.0468103 0.0299528 -0.0368175 
15.5527 27.2159 17.7261 Ar 0.0357056 -0.0336267 0.0446841 
15.4925 24.8267 20.2467 Ar -0.00105648 0.0495177 -0.0150724 
20.1254 22.4556 17.9089 Ar 0.0494911 0.0583672 0.00891936 
17.9512 24.8345 17.8769 Ar -0.0864256 0.030621 0.0568002 
20.292 27.1234 17.842 Ar -0.0192085 -0.0066243 0.00166082 
17.7586 22.5062 20.2555 Ar 0.0332585 -0.0977728 -0.0251301 
17.9158 27.1442 20.1949 Ar -0.0104943 -0.0300651 0.0194796 
20.2462 24.842 20.2493 Ar -0.0901982 -0.0166347 -0.0842348 
24.785 22.4654 17.8939 Ar -0.00408722 0.0625307 -0.0706944 
22.418 24.7083 17.7564 Ar 0.0247631 0.00271097 -0.0176507 
27.1127 24.931 17.867 Ar -0.0541779 -0.0502506 -0.0432742 
24.6249 27.1195 17.7767 Ar 0.0450345 -0.00239892 0.0631312 
22.4665 22.5509 20.2318 Ar -0.0283941 -0.137037 -0.0178182 
27.1011 22.5899 20.2146 Ar -0.0217777 -0.0928568 0.0317032 
22.5084 27.132 20.2392 Ar -0.0650687 0.0344157 -0.0514036 
24.7406 24.809 20.1922 Ar 0.0101872 0.00202425 0.0134882 
27.0277 27.1197 20.1917 Ar -0.0638656 0.126486 0.0511724 
29.3813 22.6286 17.8723 Ar 0.150689 0.0325193 0.081016 
29.5282 27.2976 18.0169 Ar -0.0289171 -0.0483477 -0.0356333 
29.3797 24.9146 20.314 Ar 0.0910961 -0.0636663 -0.103055 
15.5248 29.573 20.0335 Ar 0.0218972 -0.0096227 0.0395862 
18.054 29.45 17.9529 Ar -0.0374185 0.0447796 -0.109477 
20.2592 29.5822 20.2549 Ar 0.0539245 -0.0532184 -0.0133653 
22.3374 29.6519 17.6308 Ar 0.110338 -0.0532971 0.13463 
27.0523 29.443 17.8243 Ar 0.0057772 -0.0114058 -0.0171695 
24.726 29.5442 20.0483 Ar -0.038926 -0.0267085 0.089206 
29.3434 29.6885 20.4371 Ar -0.026182 -0.00929575 -0.090291 
15.7922 15.165 24.8033 Ar 0.0160488 0.0444942 -0.00109869 
18.1387 15.318 22.4149 Ar -0.198103 0.00348044 -0.077503 
18.0114 15.5554 27.266 Ar 0.00939667 -0.0362806 -0.0677999 
20.1597 15.3185 24.8259 Ar 0.0931778 0.0658353 -0.00820341 
22.6478 15.5343 22.4587 Ar -0.10734 -0.0488419 0.0350913 
26.8772 15.4242 22.5308 Ar 0.0919414 -0.0213344 0.134532 
22.3237 15.2479 27.1489 Ar 0.0666066 0.0732175 0.0857161 
24.684 15.5011 24.9714 Ar 0.19238 -0.1252 -0.0250525 
27.2623 15.4438 27.0742 Ar -0.15698 -0.00650425 -0.029274 
29.3948 15.427 24.7519 Ar 0.0869818 0.00794825 -0.118165 
15.4938 17.6665 22.5045 Ar 0.0293585 -0.0645246 0.0141269 
15.4565 17.7252 27.1065 Ar 0.0651658 -0.0997017 0.0787739 
15.5462 20.0167 24.9887 Ar -0.0580149 0.0943912 -0.212696 
20.2086 17.748 22.4875 Ar 0.0677582 0.0871242 0.0293777 
17.7724 20.0146 22.5061 Ar 0.0263138 0.144284 0.0512206 
17.9007 17.7246 24.7603 Ar 0.0194619 -0.000929449 0.106592 
20.3099 17.9163 27.1369 Ar -0.088409 -0.118293 0.0232261 
17.9559 20.2324 27.0414 Ar -0.124129 -0.133771 0.161335 
20.1816 20.1372 24.8209 Ar 0.0431507 -0.057513 -0.136213 
24.9005 17.8701 22.57 Ar -0.143836 0.0863806 -0.0421603 
22.5122 20.2443 22.5614 Ar -0.0804666 -0.143123 0.0276826 
27.1982 20.2072 22.6503 Ar 0.0527895 -0.0245765 -0.149264 
22.5812 17.7861 24.866 Ar -0.157872 0.134436 -0.0491786 
27.2039 17.8516 24.8464 Ar 0.0343204 -0.00466126 0.0197291 
24.8905 17.8176 27.1893 Ar 0.00311045 0.08279 -0.0854218 
22.5763 20.1698 27.1447 Ar -0.0143146 0.025763 0.0313536 
24.885 20.1755 24.8646 Ar -0.0736355 0.00328769 0.0683832 
27.2208 20.1822 27.1653 Ar 0.0319053 -0.0682116 -0.0673203 
29.4959 17.8531 22.3499 Ar -0.0293269 -0.0771361 0.0938338 
29.6582 17.7392 27.1513 Ar -0.029015 0.0162503 0.0550724 
29.9578 20.0222 24.9002 Ar -0.147042 0.0819866 -0.0705016 
15.2474 22.4342 22.6822 Ar 0.0981718 -0.0369522 -0.0858848 
15.4208 27.3137 22.4667 Ar 0.0568744 -0.0624406 0.0474081 
15.4451 22.5128 27.0889 Ar 0.00751022 0.0196335 -0.0151478 
15.4102 24.8866 24.7899 Ar 0.0701685 0.0780568 0.0221711 
15.5062 27.4316 27.0941 Ar 0.0509278 -0.101379 0.027716 
20.1146 22.4596 22.578 Ar 0.0322609 -0.0558963 -0.0712289 
17.9452 24.7865 22.4637 Ar -0.222658 0.130535 0.0782749 
20.2187 27.1871 22.6554 Ar -0.00930462 -0.0544857 -0.22866 
17.7754 22.5204 24.8167 Ar -0.0234938 -0.0125998 -0.0715715 
20.1836 22.4914 26.9949 Ar -0.0766238 0.0749862 0.270097 
17.9129 27.1562 24.8392 Ar -0.190573 0.0660127 -0.0222002 
17.8245 24.9139 27.1488 Ar -0.0251792 -0.0221308 0.0331418 
20.0719 24.8271 24.8228 Ar 0.14611 -0.00157112 0.0781991 
20.1333 27.2337 27.1923 Ar 0.0257111 -0.0227058 0.0839129 
24.8433 22.4227 22.5742 Ar -0.0415952 0.185304 0.00612795 
22.4063 24.7733 22.5847 Ar 0.124219 0.0265178 0.0222118 
27.0823 24.7988 22.5706 Ar -0.0400895 0.0125976 -0.000390496 
24.7234 27.0957 22.5635 Ar 0.0405434 0.0265268 -0.00389081 
22.4455 22.5065 24.8934 Ar 0.138832 -0.0118249 -0.139171 
27.216 22.5226 24.8748 Ar -0.011587 0.00584358 0.0599923 
24.776 22.5447 27.1662 Ar 0.0523437 -0.00790211 0.075136 
22.4672 27.1442 24.9329 Ar -0.0288624 -0.00548367 -0.0131846 
22.3729 24.8501 27.1961 Ar 0.0807814 -0.0561811 0.0283207 
24.7427 24.8033 24.8853 Ar 0.0586931 -0.033087 -0.0370164 
27.0943 27.1072 24.805 Ar -0.0502645 0.063749 0.108671 
27.2495 24.8805 27.1463 Ar -0.113274 -0.0671922 0.012644 
24.7989 27.112 27.1354 Ar 0.0557707 -0.0154302 0.168451 
29.5014 22.4977 22.5107 Ar 0.028151 0.00345041 0.0566912 
29.3428 27.218 22.5226 Ar 0.067331 -0.0208446 -0.0063514 
29.6168 22.5343 27.1442 Ar 0.00184611 -0.00220624 -0.0738666 
29.5713 24.9061 24.8037 Ar -0.00126332 -0.0743521 -0.0325757 
29.5093 27.2324 27.0395 Ar 0.00338753 -0.0723131 0.0069506 
15.77 29.7798 24.8652 Ar -0.0571578 -0.00525251 -0.0438944 
17.8927 29.46 22.4722 Ar 0.0197604 0.0584883 -0.0224086 
18.0063 29.6968 27.1826 Ar -0.0432193 -0.0353875 0.080859 
20.1834 29.5139 24.8816 Ar 0.082787 0.0870898 -0.0136596 
22.494 29.4712 22.5801 Ar 0.0667476 0.0588783 -0.0230894 
26.9697 29.4866 22.6459 Ar -0.0829743 0.044809 -0.074696 
22.5598 29.5644 27.4445 Ar -0.0995882 0.00264814 -0.12806 
24.6794 29.5147 24.988 Ar 0.053284 0.0229135 -0.0624549 
27.0858 29.5521 27.2111 Ar -0.0166692 -0.0458827 -0.011424 
29.4803 29.5432 24.774 Ar -0.0253722 0.0438611 0.0186282 
15.8202 15.5437 29.6822 Ar -0.0567129 -0.0330896 0.0101885 
20.2464 15.5677 29.6824 Ar -0.052831 -0.00559258 9.75847e-05 
24.9151 15.4555 29.3312 Ar -0.0138343 -0.102324 0.0500776 
29.4467 15.0788 29.3538 Ar 0.0360013 0.0402345 0.0388831 
15.4478 20.1904 29.3893 Ar 0.0404049 -0.0168193 -0.0216507 
17.9171 17.9565 29.43 Ar 0.0441443 0.0964902 0.0189096 
20.227 20.2986 29.4466 Ar -0.0877041 -0.183878 0.00877326 
22.6218 17.729 29.4744 Ar -0.0862265 0.0857193 0.00856678 
27.2774 17.7592 29.4273 Ar 0.0225621 0.0635652 0.0381826 
24.8081 20.1084 29.5719 Ar 0.0538194 0.0728665 -0.0309326 
29.5485 20.4286 29.6368 Ar 0.0950382 -0.195543 -0.0197825 
15.3413 24.9 29.3485 Ar 0.0458025 0.0267691 -0.00574715 
17.8468 22.5643 29.3936 Ar -0.0114614 -0.00905678 0.0133735 