LAMMPS (15 May 2015)
Lattice spacing in x,y,z = 5 5 5
Created orthogonal box = (0 0 0) to (50 50 50)
  1 by 1 by 1 MPI processor grid
Created 172 atoms
Neighbor list info ...
  1 neighbor list requests
  update every 1 steps, delay 10 steps, check yes
  master list distance cutoff = 11
Memory usage per processor = 3.75797 Mbytes
Step Temp PotEng 
       0           50   -41.803497 
     100    154.82646   -43.999654 
     200    136.13739   -43.319772 
     300    138.00201   -43.181936 
     400     169.3199   -43.612153 
     500    122.31231   -42.297228 
     600    191.56366   -43.525782 
     700    174.54214   -42.769889 
     800    167.10678   -42.270656 
     900     209.6529   -42.790532 
    1000     168.1516   -41.445483 
    1100    202.52227   -41.782812 
    1200    200.30054   -41.261174 
    1300    213.58626   -41.075808 
    1400    224.20623    -40.79399 
    1500    231.90338   -40.441791 
    1600    248.75719   -40.249404 
    1700    220.36161   -39.070807 
    1800    239.24779   -38.943497 
    1900    274.51865   -39.138826 
    2000    278.87669   -38.601178 
    2100    300.63453   -38.417846 
    2200    254.91008    -36.73949 
    2300    289.03097   -36.857088 
    2400     317.7028   -36.771876 
    2500    282.85557     -35.3006 
    2600    310.76937   -35.249182 
    2700    312.33452   -34.568348 
    2800    307.15864   -33.752474 
    2900    336.64219   -33.663731 
    3000    349.98061   -33.174222 
    3100    364.18909   -32.729295 
    3200    373.04368   -32.148238 
    3300    391.51602   -31.756843 
    3400    364.72063   -30.397341 
    3500    320.42149   -28.725378 
    3600    393.14001   -29.560276 
    3700    436.21915   -29.665749 
    3800    398.10179   -28.025832 
    3900    395.13139   -27.215754 
    4000    445.23658   -27.559814 
    4100    470.94084   -27.344764 
    4200    451.81391   -26.181252 
    4300    439.20873     -25.1835 
    4400    476.72262   -25.303608 
    4500    504.55517   -25.210759 
    4600    521.11823    -24.91816 
    4700    465.65898   -23.112152 
    4800    485.09688   -22.999152 
    4900    515.55584   -23.133594 
    5000    498.03638   -22.235335 
    5100    523.66321   -22.332576 
    5200    507.31817    -21.55809 
    5300    505.61264   -21.142699 
    5400    490.35093   -20.441491 
    5500    488.47798   -20.043976 
    5600    524.45972   -20.463681 
    5700    565.48363   -21.028196 
    5800    561.29752   -20.703318 
    5900    534.59399   -20.015369 
    6000    489.82559    -18.99725 
    6100    478.90123   -18.733811 
    6200    456.27769   -18.184965 
    6300    489.05779   -18.814572 
    6400    541.70892   -19.861733 
    6500    513.09673   -19.168924 
    6600    515.02069   -19.187692 
    6700    474.56723     -18.2735 
    6800    520.84115   -19.241397 
    6900    551.17059   -19.879126 
    7000    481.80267   -18.392645 
    7100    464.97252   -18.062956 
    7200    466.96804   -18.091397 
    7300     479.5158   -18.314688 
    7400    473.03504   -18.083674 
    7500    484.01878   -18.192862 
    7600    509.63677   -18.597901 
    7700    483.46037   -17.860443 
    7800    477.48032   -17.552594 
    7900    486.54089   -17.529424 
    8000    494.78951    -17.46079 
    8100    489.14794   -17.062261 
    8200    487.36147   -16.727066 
    8300    481.73204   -16.299974 
    8400    480.04138   -15.958765 
    8500    497.77667   -16.017829 
    8600    510.94948   -15.963969 
    8700    528.72633    -16.02531 
    8800     524.8501    -15.65843 
    8900    535.74192   -15.649912 
    9000    530.75818   -15.329088 
    9100    539.31652   -15.373399 
    9200    561.03358   -15.782202 
    9300    529.95727   -15.108741 
    9400    547.98623   -15.616729 
    9500    526.92462   -15.347742 
    9600    530.82483   -15.687687 
    9700     503.4203   -15.352994 
    9800    494.15316   -15.393453 
    9900     506.5385    -15.90223 
   10000    492.03395   -15.812315 
   10100    488.59487   -15.950286 
   10200    467.01686   -15.657286 
   10300    479.23294   -16.060176 
   10400    475.04367   -16.056266 
   10500    466.48944   -15.936828 
   10600     463.3109   -15.879824 
   10700    476.82133   -16.118623 
   10800    450.16236   -15.413644 
   10900    456.72771   -15.379843 
   11000    469.25064   -15.406857 
   11100    477.36017   -15.275089 
   11200    522.58032   -15.932461 
   11300     488.3677   -14.842652 
   11400    508.13888   -14.952662 
   11500    548.76467   -15.547053 
   11600    533.06943   -14.963489 
   11700    509.90162   -14.260407 
   11800    512.63171   -14.146664 
   11900    530.04491   -14.370608 
   12000    559.93798   -14.924238 
   12100    554.79412   -14.817079 
   12200    535.23878   -14.488262 
   12300     548.3588    -14.93617 
   12400    528.84648   -14.737712 
   12500    525.61904   -14.959085 
   12600    491.50919   -14.493468 
   12700    500.40646   -14.952684 
   12800    490.47176   -14.994281 
   12900    459.07338    -14.52456 
   13000    480.10876   -15.154229 
   13100    467.88932   -15.007522 
   13200    440.36896    -14.46328 
   13300    439.72191   -14.407708 
   13400     451.8339   -14.527796 
   13500    487.87167    -15.09358 
   13600    487.53986   -14.831397 
   13700    498.04742   -14.817306 
   13800    485.71763   -14.304827 
   13900    491.84402   -14.178797 
   14000    541.69138   -15.002255 
   14100    529.23542   -14.501243 
   14200    519.92884   -14.145739 
   14300    515.54289   -13.953119 
   14400     501.8942   -13.582685 
   14500    551.80265   -14.649792 
   14600    546.76441   -14.580802 
   14700    542.55967   -14.626649 
   14800     504.8566   -14.003109 
   14900    488.13111   -13.864451 
   15000    495.50839   -14.249529 
   15100    458.60755   -13.641039 
   15200     446.0165   -13.509823 
   15300    493.55073   -14.638413 
   15400     534.8221   -15.614533 
   15500    506.67379    -15.08439 
   15600    477.28965   -14.530426 
   15700    469.12921   -14.408563 
   15800    493.53293    -14.96591 
   15900    501.65869   -15.145166 
   16000    488.92443   -14.852859 
   16100    494.23844    -14.95215 
   16200    467.17775   -14.314719 
   16300    477.27922   -14.440797 
   16400    507.22735   -14.940536 
   16500    518.93695   -15.004909 
   16600    502.88682   -14.446714 
   16700    529.74362   -14.827889 
   16800    523.33436   -14.481411 
   16900    535.50364   -14.582296 
   17000    539.22433   -14.531947 
   17100    521.79895   -14.050492 
   17200     536.8817   -14.316576 
   17300    551.49618   -14.627389 
   17400    540.00499   -14.459426 
   17500    507.88495   -13.950795 
   17600    490.03219   -13.826131 
   17700    505.16654   -14.492789 
   17800    488.74166   -14.496915 
   17900    483.76012   -14.716647 
   18000    469.81493   -14.665356 
   18100    484.23557   -15.165743 
   18200    483.37829   -15.290947 
   18300    474.63469   -15.195582 
   18400    469.72368   -15.135631 
   18500    521.17715   -16.275356 
   18600    519.02608    -16.23885 
   18700    490.03584   -15.626245 
   18800    501.90773   -15.896359 
   18900    506.78021   -16.015646 
   19000    498.75397   -15.870449 
   19100    491.69707   -15.761851 
   19200    480.47548    -15.56515 
   19300    482.45029    -15.64546 
   19400    463.66651    -15.22592 
   19500    469.07951   -15.289824 
   19600    490.57222   -15.641941 
   19700    493.53652   -15.532865 
   19800    491.12137   -15.269309 
   19900    502.12033   -15.263835 
   20000    499.01543   -14.942888 
   20100    486.44808   -14.414458 
   20200    486.19713   -14.143779 
   20300     495.9222   -14.083498 
   20400    509.20273    -14.11556 
   20500    523.26486   -14.198717 
   20600    533.49464   -14.245767 
   20700     528.4572    -14.00308 
   20800    546.35564   -14.321691 
   20900    531.09113   -13.994342 
   21000    526.68415   -13.971635 
   21100    553.13716   -14.716796 
   21200    522.85493   -14.289426 
   21300    469.96041   -13.392233 
   21400    475.30011   -13.736358 
   21500    497.82038   -14.419779 
   21600    481.01877    -14.20968 
   21700    462.06845   -13.910214 
   21800    455.76209   -13.835036 
   21900    476.06574   -14.289006 
   22000    463.56904   -13.941806 
   22100    449.95007   -13.446224 
   22200    505.36296   -14.284013 
   22300    503.64392   -13.690265 
   22400    507.31942    -13.20649 
   22500    563.63472   -14.015066 
   22600    560.64429   -13.725849 
   22700    553.60272   -13.514873 
   22800    535.36173   -13.153447 
   22900    548.07455   -13.547123 
   23000    559.39617   -13.991328 
   23100    543.51818   -13.932112 
   23200    509.39484    -13.49063 
   23300    488.04742   -13.290629 
   23400    497.14407   -13.715521 
   23500    476.21821   -13.430835 
   23600    470.27294   -13.422113 
   23700    518.65499   -14.569506 
   23800    531.33334    -14.93648 
   23900    515.72646   -14.721697 
   24000    501.60441    -14.53704 
   24100    504.95426   -14.736148 
   24200    517.80665   -15.141268 
   24300    508.83416    -15.08661 
   24400    488.52625   -14.810698 
   24500     473.3185   -14.642347 
   24600    485.87753   -15.065892 
   24700    470.92471   -14.866838 
   24800    470.06126   -14.958013 
   24900     493.4054   -15.568037 
   25000    491.28033   -15.629694 
Loop time of 3.46831 on 1 procs for 25000 steps with 172 atoms

Pair  time (%) = 2.56809 (74.0445)
Neigh time (%) = 0.213496 (6.15562)
Comm  time (%) = 0.0760152 (2.19171)
Outpt time (%) = 0.255238 (7.35913)
Other time (%) = 0.355469 (10.2491)

Nlocal:    172 ave 172 max 172 min
Histogram: 1 0 0 0 0 0 0 0 0 0
Nghost:    161 ave 161 max 161 min
Histogram: 1 0 0 0 0 0 0 0 0 0
Neighs:    2863 ave 2863 max 2863 min
Histogram: 1 0 0 0 0 0 0 0 0 0

Total # of neighbors = 2863
Ave neighs/atom = 16.6453
Neighbor list builds = 1042
Dangerous builds = 0
